 TITLE = "Time curves in points"
 VARIABLES = "TIME"  "PRESSURE1"  "SATURATION1"  "TEMPERATURE1"  "DISPLACEMENT_X1"  "DISPLACEMENT_Y1"  "STRESS_XX"  "STRESS_XY"  "STRESS_YY"  "STRESS_ZZ"  "STRAIN_XX"  "STRAIN_XY"  "STRAIN_YY"  "STRAIN_PLS"  p_(1st_Invariant)  q_(2nd_Invariant)   Effective_Strain
 ZONE T="POINT=POINT7"
0.000000000000e+00 1.000000000000e+05 1.000000000000e+00 2.500000000000e+01 0.000000000000e+00 0.000000000000e+00 -4.802037371233e+07 8.691162604822e+07 -3.467332748008e+07 -2.180506035772e+07 0.000000000000e+00 0.000000000000e+00 0.000000000000e+00 0.000000000000e+00 3.483292051671e+07 1.522379109325e+08  0.000000000000e+00
1.000000000000e-03 1.413412552946e+05 1.000000000000e+00 2.500280428798e+01 2.342260226425e-06 6.276023517941e-05 -4.824536635869e+07 8.691259168866e+07 -3.460738097929e+07 -2.185371942394e+07 -6.549532976472e-06 7.173329043456e-08 4.256778203093e-06 0.000000000000e+00 3.490215558731e+07 1.522628666492e+08  9.429310106778e-06
2.000000000000e-03 1.644189448192e+05 1.000000000000e+00 2.501564381585e+01 2.932224985690e-06 6.218188754959e-05 -4.824297597593e+07 8.691240151657e+07 -3.459625430346e+07 -2.185400941744e+07 -6.449976144052e-06 5.760622051712e-08 4.680825920842e-06 0.000000000000e+00 3.489774656561e+07 1.522622221653e+08  9.680573046772e-06
3.000000000000e-03 1.801828042397e+05 1.000000000000e+00 2.504723888815e+01 3.584408695403e-06 6.170833846810e-05 -4.824694855053e+07 8.691232263022e+07 -3.459532169015e+07 -2.186564357044e+07 -6.165403232173e-06 5.174609177897e-08 5.147591526431e-06 0.000000000000e+00 3.490263793704e+07 1.522611175305e+08  9.810958462213e-06
4.000000000000e-03 1.909645331175e+05 1.000000000000e+00 2.510343997643e+01 4.295452880445e-06 6.119846502700e-05 -4.825582479046e+07 8.691229052843e+07 -3.460735335706e+07 -2.189103930654e+07 -5.551821945843e-06 4.936138694409e-08 5.643971239655e-06 0.000000000000e+00 3.491807248469e+07 1.522589320836e+08  9.696327722493e-06
1.000000000000e-02 2.067813581907e+05 1.000000000000e+00 2.594628110919e+01 9.243051015846e-06 5.840398579789e-05 -4.836077433978e+07 8.691225902290e+07 -3.493115834006e+07 -2.230967907679e+07 6.099529117432e-06 4.702097637189e-08 9.166406194694e-06 0.000000000000e+00 3.520053725221e+07 1.522181994702e+08  8.082272539975e-06
2.000000000000e-02 2.050625079167e+05 1.000000000000e+00 2.758034036847e+01 1.715111965301e-05 5.658969158131e-05 -4.854543121884e+07 8.691223980905e+07 -3.558983659757e+07 -2.312832430615e+07 2.964766784287e-05 4.559366226275e-08 1.510803657748e-05 0.000000000000e+00 3.575453070752e+07 1.521374224446e+08  2.567732781826e-05
3.000000000000e-02 1.950322212313e+05 1.000000000000e+00 2.908484136141e+01 2.436414195262e-05 5.694194380015e-05 -4.871753085859e+07 8.691222596317e+07 -3.619376995649e+07 -2.388358658789e+07 5.130799454523e-05 4.456511072698e-08 2.072882513959e-05 0.000000000000e+00 3.626496246766e+07 1.520649863068e+08  4.470621888370e-05
4.000000000000e-02 1.817985407931e+05 1.000000000000e+00 3.039238212025e+01 3.102483951945e-05 5.962587935341e-05 -4.887689958773e+07 8.691221549001e+07 -3.670300504656e+07 -2.453912269310e+07 6.973706851332e-05 4.378710461340e-08 2.616286284446e-05 0.000000000000e+00 3.670634244246e+07 1.520047537656e+08  6.101834568630e-05
5.000000000000e-02 1.676434085483e+05 1.000000000000e+00 3.151681238627e+01 3.714929200680e-05 6.331132574597e-05 -4.902378609891e+07 8.691220673208e+07 -3.712907591255e+07 -2.510276783764e+07 8.521667489520e-05 4.313651539018e-08 3.127276461927e-05 0.000000000000e+00 3.708520994970e+07 1.519551272666e+08  7.466533368150e-05
6.000000000000e-02 1.532845441325e+05 1.000000000000e+00 3.248853658346e+01 4.274189540972e-05 6.931359028771e-05 -4.915716590240e+07 8.691219784955e+07 -3.747900342567e+07 -2.558662491858e+07 9.823440234346e-05 4.247667079199e-08 3.624729142401e-05 0.000000000000e+00 3.740759808222e+07 1.519140535926e+08  8.604149198235e-05
7.000000000000e-02 1.396036811256e+05 1.000000000000e+00 3.333663389762e+01 4.788712426782e-05 7.532875201772e-05 -4.928094315334e+07 8.691219016358e+07 -3.777760645890e+07 -2.600928748157e+07 1.093358567912e-04 4.190571234585e-08 4.085521681536e-05 0.000000000000e+00 3.768927903127e+07 1.518794963755e+08  9.568982942125e-05
8.000000000000e-02 1.272619211682e+05 1.000000000000e+00 3.408501699852e+01 5.268552130852e-05 8.213213070087e-05 -4.939664585601e+07 8.691218372797e+07 -3.803015429336e+07 -2.638104326904e+07 1.188463999411e-04 4.142763853209e-08 4.528294078438e-05 0.000000000000e+00 3.793594780614e+07 1.518502271364e+08  1.038908184722e-04
9.000000000000e-02 1.171517363113e+05 1.000000000000e+00 3.475240661445e+01 5.722777446284e-05 8.832157896429e-05 -4.950745655827e+07 8.691217617838e+07 -3.825152705912e+07 -2.671378848092e+07 1.270896817267e-04 4.086681198895e-08 4.941963163983e-05 0.000000000000e+00 3.815759069944e+07 1.518251047640e+08  1.109656115512e-04
1.000000000000e-01 1.102703160861e+05 1.000000000000e+00 3.535333117252e+01 6.148046776938e-05 9.386167334646e-05 -4.961282218590e+07 8.691217117366e+07 -3.844954559465e+07 -2.701474060936e+07 1.343543231853e-04 4.049503283981e-08 5.324287937633e-05 0.000000000000e+00 3.835903612997e+07 1.518031616748e+08  1.171856742924e-04
2.000000000000e-01 1.323288196601e+05 1.000000000000e+00 3.882851231477e+01 8.854063033790e-05 1.886891953085e-04 -5.029729013597e+07 8.691214381174e+07 -3.926931476910e+07 -2.868104581417e+07 1.708225640757e-04 3.846243324599e-08 8.468564621854e-05 0.000000000000e+00 3.941588357308e+07 1.516959362515e+08  1.479384746557e-04
3.000000000000e-01 1.634812514515e+05 1.000000000000e+00 4.114283855407e+01 1.119075269883e-04 2.983614454895e-04 -5.089253413918e+07 8.691213566555e+07 -3.950221209283e+07 -2.973898000873e+07 1.880081997545e-04 3.785728732121e-08 1.153298728492e-04 0.000000000000e+00 4.004457541358e+07 1.516490173807e+08  1.642105516512e-04
4.000000000000e-01 1.951057524480e+05 1.000000000000e+00 4.283441461058e+01 1.318315357019e-04 4.037959091698e-04 -5.141870440743e+07 8.691215475632e+07 -3.950864851812e+07 -3.049056340110e+07 1.963806872219e-04 3.927545938153e-08 1.430067601981e-04 0.000000000000e+00 4.047263877555e+07 1.516303040998e+08  1.758765093999e-04
5.000000000000e-01 2.250539193533e+05 1.000000000000e+00 4.415040919333e+01 1.499164461549e-04 5.062198684767e-04 -5.191074030390e+07 8.691220332679e+07 -3.937373798674e+07 -3.105816017694e+07 1.991872341698e-04 4.288355116917e-08 1.690998887520e-04 0.000000000000e+00 4.078087948919e+07 1.516303760499e+08  1.859779368910e-04
6.000000000000e-01 2.527631152710e+05 1.000000000000e+00 4.521803575671e+01 1.661908981673e-04 6.060896035271e-04 -5.236844104269e+07 8.691227301072e+07 -3.915361610000e+07 -3.150303004296e+07 1.987106588958e-04 4.806007163930e-08 1.937995824262e-04 0.000000000000e+00 4.100836239522e+07 1.516426517191e+08  1.963012183331e-04
7.000000000000e-01 2.783761873711e+05 1.000000000000e+00 4.611200686447e+01 1.806481177272e-04 7.035861931799e-04 -5.279202449116e+07 8.691236511554e+07 -3.888785644148e+07 -3.186322784661e+07 1.963563349451e-04 5.490214378259e-08 2.170494310209e-04 0.000000000000e+00 4.118103625975e+07 1.516628515572e+08  2.074782977690e-04
8.000000000000e-01 3.021552404606e+05 1.000000000000e+00 4.687762352566e+01 1.929976333567e-04 7.988765058273e-04 -5.317078124370e+07 8.691246857095e+07 -3.860975696917e+07 -3.216137945156e+07 1.933624294632e-04 6.258740283981e-08 2.384530424618e-04 0.000000000000e+00 4.131397255481e+07 1.516866228821e+08  2.194106531950e-04
9.000000000000e-01 3.242066392019e+05 1.000000000000e+00 4.754491137781e+01 2.042525932144e-04 8.919233063587e-04 -5.353014485556e+07 8.691257802055e+07 -3.831022622635e+07 -3.241288364421e+07 1.893562224640e-04 7.071794444335e-08 2.589200543505e-04 0.000000000000e+00 4.141775157537e+07 1.517154253903e+08  2.320932250666e-04
1.000000000000e+00 3.447023617940e+05 1.000000000000e+00 4.813450176080e+01 2.143071327652e-04 9.827869995828e-04 -5.386502941265e+07 8.691268997486e+07 -3.800052947958e+07 -3.262681227345e+07 1.848635737152e-04 7.903455057171e-08 2.783689968882e-04 0.000000000000e+00 4.149745705523e+07 1.517473478088e+08  2.453641589116e-04
2.000000000000e+00 4.796085427425e+05 1.000000000000e+00 5.134024693470e+01 2.703913680632e-04 1.736042858394e-03 -5.627960204573e+07 8.691342977444e+07 -3.493775353854e+07 -3.355483920618e+07 1.296490191309e-04 1.339910905105e-07 4.265988179140e-04 0.000000000000e+00 4.159073159682e+07 1.521470792470e+08  3.787972480934e-04
3.000000000000e+00 5.833220838915e+05 1.000000000000e+00 5.340425538575e+01 3.091080839223e-04 2.378738868343e-03 -5.823720557039e+07 8.691440717126e+07 -3.208002437561e+07 -3.400779517652e+07 7.376210997013e-05 2.065977115657e-07 5.495671228640e-04 0.000000000000e+00 4.144167504084e+07 1.526428245938e+08  5.166505287866e-04
4.000000000000e+00 6.697140086513e+05 1.000000000000e+00 5.490878737857e+01 3.388721749930e-04 2.939077354332e-03 -5.988959536245e+07 8.691527811346e+07 -2.950255250804e+07 -3.425746405252e+07 2.166104737375e-05 2.712962751112e-07 6.545752076253e-04 0.000000000000e+00 4.121653730767e+07 1.531805815532e+08  6.440181205789e-04
5.000000000000e+00 7.455226978264e+05 1.000000000000e+00 5.611567457007e+01 3.632353999652e-04 3.436398662668e-03 -6.131660641032e+07 8.691615001077e+07 -2.720812104662e+07 -3.442021614546e+07 -2.529714238085e-05 3.360657897312e-07 7.458420253586e-04 0.000000000000e+00 4.098164786747e+07 1.537291802082e+08  7.588071447564e-04
6.000000000000e+00 8.142013544012e+05 1.000000000000e+00 5.716990259263e+01 3.851620852336e-04 3.885139853254e-03 -6.259753162766e+07 8.691688162060e+07 -2.514569343816e+07 -3.455522518696e+07 -6.785974319766e-05 3.904139486085e-07 8.274611009285e-04 0.000000000000e+00 4.076615008426e+07 1.542802908442e+08  8.633936375610e-04
7.000000000000e+00 8.779417004956e+05 1.000000000000e+00 5.804439800794e+01 4.038766075827e-04 4.292358601299e-03 -6.372428551267e+07 8.691741972679e+07 -2.327924068428e+07 -3.463990211329e+07 -1.065654588058e-04 4.303875513292e-07 8.999316319078e-04 0.000000000000e+00 4.054780943675e+07 1.548202098383e+08  9.576718237826e-04
8.000000000000e+00 9.374371718012e+05 1.000000000000e+00 5.888785281134e+01 4.206463129655e-04 4.667781997259e-03 -6.474489181076e+07 8.691778009102e+07 -2.160944992506e+07 -3.474073619007e+07 -1.407284270256e-04 4.571574651914e-07 9.656976972452e-04 0.000000000000e+00 4.036502597530e+07 1.553408339038e+08  1.043205769507e-03
9.000000000000e+00 9.937703155433e+05 1.000000000000e+00 5.965317844942e+01 4.362188459575e-04 5.015898459190e-03 -6.568453252314e+07 8.691809415279e+07 -2.007032195333e+07 -3.482912079305e+07 -1.723465110892e-04 4.804877684202e-07 1.026148164306e-03 0.000000000000e+00 4.019465842318e+07 1.558509950707e+08  1.122291015547e-03
1.000000000000e+01 1.047436495103e+06 1.000000000000e+00 6.034406420573e+01 4.508931507349e-04 5.340066137796e-03 -6.655779620922e+07 8.691838077324e+07 -1.863728675797e+07 -3.490335839795e+07 -2.020246226759e-04 5.017795729955e-07 1.082132582601e-03 0.000000000000e+00 4.003281378838e+07 1.563518360034e+08  1.196011311204e-03
1.100000000000e+01 1.098728747000e+06 1.000000000000e+00 6.099305099283e+01 4.640855871871e-04 5.643906130645e-03 -6.735890035196e+07 8.691839016857e+07 -1.731614864128e+07 -3.497481428391e+07 -2.291258436422e-04 5.024775121990e-07 1.133857502699e-03 0.000000000000e+00 3.988328775905e+07 1.568337874925e+08  1.264091888661e-03
1.200000000000e+01 1.148046967535e+06 1.000000000000e+00 6.158495237055e+01 4.761720759918e-04 5.929388043553e-03 -6.810124500492e+07 8.691853116863e+07 -1.608324228940e+07 -3.503513038014e+07 -2.544583328920e-04 5.129518024853e-07 1.181891479343e-03 0.000000000000e+00 3.973987255815e+07 1.573013047755e+08  1.327538864581e-03
1.300000000000e+01 1.195651368083e+06 1.000000000000e+00 6.212186572654e+01 4.874493563224e-04 6.198105124372e-03 -6.879413054693e+07 8.691863839164e+07 -1.492086966573e+07 -3.508252308725e+07 -2.784337810453e-04 5.209169399668e-07 1.226825620201e-03 0.000000000000e+00 3.959917443331e+07 1.577567608429e+08  1.387161484107e-03
1.400000000000e+01 1.242259551708e+06 1.000000000000e+00 6.260772768483e+01 4.979365366037e-04 6.451601075193e-03 -6.944064336120e+07 8.691865870580e+07 -1.382213530898e+07 -3.511722804548e+07 -3.011580728412e-04 5.224259917274e-07 1.268924794757e-03 0.000000000000e+00 3.946000223855e+07 1.581994242070e+08  1.443265077574e-03
1.500000000000e+01 1.287424555555e+06 1.000000000000e+00 6.304640614475e+01 5.075999393822e-04 6.690805215042e-03 -7.004310547044e+07 8.691863768513e+07 -1.278590680432e+07 -3.514095530544e+07 -3.226539386717e-04 5.208644565825e-07 1.308294580300e-03 0.000000000000e+00 3.932332252673e+07 1.586275394453e+08  1.495950362198e-03
1.600000000000e+01 1.331285541316e+06 1.000000000000e+00 6.344141475303e+01 5.167242390434e-04 6.916731506663e-03 -7.060883935171e+07 8.691861919547e+07 -1.180192122105e+07 -3.515405271924e+07 -3.431804360351e-04 5.194909391183e-07 1.345329091620e-03 0.000000000000e+00 3.918827109733e+07 1.590435407959e+08  1.545760204664e-03
1.700000000000e+01 1.373981454982e+06 1.000000000000e+00 6.379585165581e+01 5.256971295797e-04 7.130270389823e-03 -7.114881896462e+07 8.691856214539e+07 -1.085905059254e+07 -3.515755831369e+07 -3.631066138633e-04 5.152529327614e-07 1.380480208473e-03 0.000000000000e+00 3.905514262362e+07 1.594516590751e+08  1.593371993440e-03
1.800000000000e+01 1.415647029235e+06 1.000000000000e+00 6.411243622563e+01 5.345851168945e-04 7.332207526371e-03 -7.166554422724e+07 8.691848054914e+07 -9.952785568036e+06 -3.515182101696e+07 -3.825123660677e-04 5.091914971874e-07 1.413928381219e-03 0.000000000000e+00 3.892338360408e+07 1.598524968798e+08  1.639010386114e-03
1.900000000000e+01 1.456374282014e+06 1.000000000000e+00 6.439355789026e+01 5.434408830533e-04 7.523234009343e-03 -7.216157353231e+07 8.691837379522e+07 -9.080103199225e+06 -3.513753768168e+07 -4.014668355666e-04 5.012612062270e-07 1.445811773893e-03 0.000000000000e+00 3.879307147107e+07 1.602464714761e+08  1.682852797206e-03
2.000000000000e+01 1.496247460135e+06 1.000000000000e+00 6.464132388855e+01 5.516033574138e-04 7.703974103070e-03 -7.262439912353e+07 8.691806309810e+07 -8.253827084857e+06 -3.511554071271e+07 -4.194745306591e-04 4.781808484566e-07 1.475684999293e-03 0.000000000000e+00 3.866458897370e+07 1.606246164497e+08  1.724128202154e-03
2.100000000000e+01 1.535192806225e+06 1.000000000000e+00 6.490430940938e+01 5.594484342460e-04 7.876693128096e-03 -7.306526195671e+07 8.691792348984e+07 -7.477813220926e+06 -3.510730089170e+07 -4.361554863864e-04 4.678099491203e-07 1.504202320888e-03 0.000000000000e+00 3.855012535645e+07 1.609879830477e+08  1.763213821945e-03
2.200000000000e+01 1.573367391864e+06 1.000000000000e+00 6.515088863720e+01 5.672550377255e-04 8.041798254894e-03 -7.349134800177e+07 8.691776926050e+07 -6.728893523636e+06 -3.509701151339e+07 -4.523637163974e-04 4.563529127164e-07 1.531637161307e-03 0.000000000000e+00 3.843908434626e+07 1.613448049984e+08  1.800945037763e-03
2.300000000000e+01 1.610838576131e+06 1.000000000000e+00 6.537661451534e+01 5.743287243411e-04 8.199578692448e-03 -7.388881265815e+07 8.691753693925e+07 -6.018272176779e+06 -3.508232623326e+07 -4.676721426106e-04 4.390947626178e-07 1.557486215214e-03 0.000000000000e+00 3.832980368940e+07 1.616864593242e+08  1.836538602187e-03
2.400000000000e+01 1.647648378482e+06 1.000000000000e+00 6.558092359377e+01 5.810247630771e-04 8.350295038279e-03 -7.426521646104e+07 8.691734954584e+07 -5.336096863665e+06 -3.506236066655e+07 -4.823944334814e-04 4.251741093686e-07 1.582082577223e-03 0.000000000000e+00 3.822122466375e+07 1.620177337563e+08  1.870528813327e-03
2.500000000000e+01 1.683854202719e+06 1.000000000000e+00 6.576416191171e+01 5.874876287867e-04 8.494208298784e-03 -7.462432054146e+07 8.691717648077e+07 -4.678448146389e+06 -3.503718841246e+07 -4.966675544776e-04 4.123178470008e-07 1.605574560141e-03 0.000000000000e+00 3.811331903344e+07 1.623403717659e+08  1.903151499009e-03
2.600000000000e+01 1.719493175218e+06 1.000000000000e+00 6.592693399654e+01 5.938631297201e-04 8.631565907309e-03 -7.496994047895e+07 8.691700129670e+07 -4.042028631362e+06 -3.500717655797e+07 -5.106195924653e-04 3.993041731534e-07 1.628098273247e-03 0.000000000000e+00 3.800638188943e+07 1.626561130912e+08  1.934625470387e-03
2.700000000000e+01 1.754594732155e+06 1.000000000000e+00 6.606991878478e+01 6.001935986270e-04 8.762601403672e-03 -7.530340091885e+07 8.691682968085e+07 -3.425031943593e+06 -3.497241819170e+07 -5.242962909799e-04 3.865555668835e-07 1.649724268046e-03 0.000000000000e+00 3.790028368472e+07 1.629655444626e+08  1.965050005589e-03
2.800000000000e+01 1.789200920037e+06 1.000000000000e+00 6.619379701274e+01 6.065752024979e-04 8.887537081108e-03 -7.562721468747e+07 8.691664456386e+07 -2.824397791943e+06 -3.493298729398e+07 -5.377882357298e-04 3.728040190265e-07 1.670568960335e-03 0.000000000000e+00 3.779486659113e+07 1.632700989531e+08  1.994600107419e-03
2.900000000000e+01 1.823338912299e+06 1.000000000000e+00 6.629922530560e+01 6.130543115731e-04 9.006580148835e-03 -7.594290756260e+07 8.691644787429e+07 -2.239086488958e+06 -3.488925951246e+07 -5.511381458339e-04 3.581927936647e-07 1.690684919703e-03 0.000000000000e+00 3.769041785467e+07 1.635703251266e+08  2.023356145182e-03
3.000000000000e+01 1.857014513206e+06 1.000000000000e+00 6.638683103109e+01 6.196035278631e-04 9.119931766568e-03 -7.624988218526e+07 8.691627568256e+07 -1.668470444255e+06 -3.484108693720e+07 -5.643293274713e-04 3.454014084219e-07 1.710089962854e-03 0.000000000000e+00 3.758647985557e+07 1.638659996115e+08  2.051323852408e-03
3.100000000000e+01 1.890151113501e+06 1.000000000000e+00 6.649419011281e+01 6.263270173236e-04 9.229141526565e-03 -7.655331829954e+07 8.691607488393e+07 -1.122179905738e+06 -3.480601687030e+07 -5.769024142005e-04 3.304849385902e-07 1.729078151800e-03 0.000000000000e+00 3.749383835853e+07 1.641549864123e+08  2.078469951266e-03
3.200000000000e+01 1.922830080027e+06 1.000000000000e+00 6.659549683178e+01 6.333002531098e-04 9.334317968847e-03 -7.685484379523e+07 8.691586883697e+07 -5.851183203510e+05 -3.477102189306e+07 -5.894017460523e-04 3.151785928594e-07 1.747726340102e-03 0.000000000000e+00 3.740366133621e+07 1.644430062774e+08  2.105244649115e-03
3.300000000000e+01 1.955077262852e+06 1.000000000000e+00 6.668654149222e+01 6.405232656121e-04 9.435517235785e-03 -7.715509189219e+07 8.691566318843e+07 -5.452375356759e+04 -3.473399182045e+07 -6.019292209220e-04 2.999018445482e-07 1.766058735600e-03 0.000000000000e+00 3.731453582207e+07 1.647311565687e+08  2.131742215474e-03
3.400000000000e+01 1.986915457134e+06 1.000000000000e+00 6.676628760819e+01 6.479554600053e-04 9.532767192381e-03 -7.745305462453e+07 8.691547306598e+07 4.689867055382e+05 -3.469444679784e+07 -6.144652232488e-04 2.857784621648e-07 1.784034594670e-03 0.000000000000e+00 3.722617157228e+07 1.650187972229e+08  2.157909730750e-03
3.500000000000e+01 2.018386078475e+06 1.000000000000e+00 6.683449111677e+01 6.559288087873e-04 9.626132666427e-03 -7.775604645096e+07 8.691525752247e+07 9.929478678124e+05 -3.465223533359e+07 -6.272870597596e-04 2.697666584865e-07 1.801928154883e-03 0.000000000000e+00 3.713844463891e+07 1.653110608303e+08  2.184207078827e-03
3.600000000000e+01 2.049530889919e+06 1.000000000000e+00 6.689117748564e+01 6.648130035943e-04 9.715660134735e-03 -7.807183385964e+07 8.691507359355e+07 1.525283019742e+06 -3.460731933131e+07 -6.406846150239e-04 2.561033678337e-07 1.820032294726e-03 0.000000000000e+00 3.705129005707e+07 1.656137224055e+08  2.211122162301e-03
3.700000000000e+01 2.080435745441e+06 1.000000000000e+00 6.693649239167e+01 6.759653113025e-04 9.801409168583e-03 -7.843002536720e+07 8.691526578441e+07 2.094784774815e+06 -3.455999452277e+07 -6.557466496220e-04 2.703804026250e-07 1.839427438455e-03 0.000000000000e+00 3.696507837172e+07 1.659487542260e+08  2.240467712139e-03
3.800000000000e+01 2.113302048560e+06 1.000000000000e+00 6.697096005175e+01 7.315342082289e-04 9.883199543474e-03 -7.974011389054e+07 8.692751155894e+07 3.590289005896e+06 -3.451664122553e+07 -7.060173458146e-04 1.180066511158e-06 1.893364473141e-03 0.000000000000e+00 3.688882203672e+07 1.670024105416e+08  2.328098335208e-03
3.900000000000e+01 2.143157947788e+06 1.000000000000e+00 6.699389716341e+01 7.286864139011e-04 9.962026989330e-03 -7.978127771209e+07 8.691291231923e+07 3.849388383642e+06 -3.445949690391e+07 -7.096687911323e-04 9.555156073246e-08 1.900865660939e-03 0.000000000000e+00 3.679712874412e+07 1.670910661676e+08  2.337927526067e-03
4.000000000000e+01 2.172544101843e+06 1.000000000000e+00 6.700587685751e+01 7.232421125059e-04 1.003696998403e-02 -7.976370504473e+07 8.691291282848e+07 4.036524998840e+06 -3.440248541517e+07 -7.111336616410e-04 9.558939079067e-08 1.905698879922e-03 0.000000000000e+00 3.670988848702e+07 1.671538255937e+08  2.343630934156e-03
4.200000000000e+01 2.229827605392e+06 1.000000000000e+00 6.705899310480e+01 7.132851308104e-04 1.017731522804e-02 -7.973229619982e+07 8.691291266766e+07 4.375864067160e+06 -3.431019177694e+07 -7.133950968215e-04 9.557744403107e-08 1.914874853040e-03 0.000000000000e+00 3.655554130320e+07 1.672678801216e+08  2.354090190618e-03
4.400000000000e+01 2.285593809494e+06 1.000000000000e+00 6.709089078091e+01 7.041137427703e-04 1.030815467214e-02 -7.970163754177e+07 8.691291241855e+07 4.702586516471e+06 -3.421447974461e+07 -7.158113650089e-04 9.555893894657e-08 1.923455239956e-03 0.000000000000e+00 3.640451025663e+07 1.673780431839e+08  2.364084837444e-03
5.000000000000e+01 2.437116678573e+06 1.000000000000e+00 6.687731638317e+01 6.849709587277e-04 1.058185483466e-02 -7.961971310394e+07 8.691291221661e+07 5.522522709674e+06 -3.387018381918e+07 -7.255565916912e-04 9.554393809427e-08 1.941121878473e-03 0.000000000000e+00 3.598912473781e+07 1.676560928458e+08  2.388049479475e-03
6.500000000000e+01 2.768502507756e+06 1.000000000000e+00 6.609227658981e+01 6.588211049070e-04 1.104619454063e-02 -7.944322692002e+07 8.691291111773e+07 7.199938075753e+06 -3.304119175816e+07 -7.497925242695e-04 9.546230683841e-08 1.972634744090e-03 0.000000000000e+00 3.509482686748e+07 1.682299916063e+08  2.435681316308e-03
8.000000000000e+01 3.023556374630e+06 1.000000000000e+00 6.508884968109e+01 6.495008895887e-04 1.126655935934e-02 -7.931389551316e+07 8.691291154054e+07 8.345934702066e+06 -3.230888679634e+07 -7.721886848820e-04 9.549371547514e-08 1.988000434485e-03 0.000000000000e+00 3.442561586914e+07 1.686262973910e+08  2.466481818498e-03
1.000000000000e+02 3.324236305531e+06 1.000000000000e+00 6.398428875965e+01 6.450835811967e-04 1.145104426280e-02 -7.918372628863e+07 8.691291240012e+07 9.471187750156e+06 -3.154707829090e+07 -7.956495724586e-04 9.555756989114e-08 2.001499803212e-03 0.000000000000e+00 3.375320560979e+07 1.690185910128e+08  2.496307712304e-03
1.860000000000e+02 3.922717201764e+06 1.000000000000e+00 6.134131221386e+01 6.526535111959e-04 1.167037121547e-02 -7.891447756765e+07 8.691291218135e+07 1.169975716478e+07 -2.987536294107e+07 -8.477411901018e-04 9.554131843943e-08 2.022182954191e-03 0.000000000000e+00 3.236336111465e+07 1.698048743917e+08  2.553855289007e-03
2.720000000000e+02 4.213038211969e+06 1.000000000000e+00 5.933681595054e+01 6.753611917752e-04 1.150228191320e-02 -7.881315588902e+07 8.691291327873e+07 1.235345660701e+07 -2.894858018532e+07 -8.784011729662e-04 9.562283806708e-08 2.012039859689e-03 0.000000000000e+00 3.180275982244e+07 1.700394253620e+08  2.566567984270e-03
3.580000000000e+02 4.354403691727e+06 1.000000000000e+00 5.793077727829e+01 6.952538784296e-04 1.132638883251e-02 -7.875670868788e+07 8.691291288465e+07 1.265940121996e+07 -2.834849797445e+07 -8.985933304705e-04 9.559356372669e-08 2.001114748908e-03 0.000000000000e+00 3.148193514746e+07 1.701509142069e+08  2.571015092556e-03
4.440000000000e+02 4.426532453840e+06 1.000000000000e+00 5.685962552591e+01 7.119636634403e-04 1.116179944033e-02 -7.872316758562e+07 8.691291385500e+07 1.279723147454e+07 -2.792268732200e+07 -9.131633423344e-04 9.566564707764e-08 1.990418334130e-03 0.000000000000e+00 3.128287447769e+07 1.702026903350e+08  2.571616130125e-03
5.300000000000e+02 4.465496889446e+06 1.000000000000e+00 5.603562150135e+01 7.256330788648e-04 1.101915273343e-02 -7.870234195348e+07 8.691291486466e+07 1.285317804821e+07 -2.761160675330e+07 -9.239442399784e-04 9.574065009784e-08 1.980941928601e-03 0.000000000000e+00 3.115359021952e+07 1.702251507515e+08  2.570619340789e-03
6.160000000000e+02 4.488012314786e+06 1.000000000000e+00 5.540773413179e+01 7.365314105878e-04 1.090092887146e-02 -7.868944773454e+07 8.691291442950e+07 1.286587060429e+07 -2.738441790456e+07 -9.319037547996e-04 9.570832400645e-08 1.972974923445e-03 0.000000000000e+00 3.106933167827e+07 1.702318952118e+08  2.568987626189e-03
7.020000000000e+02 4.501822576458e+06 1.000000000000e+00 5.494614336094e+01 7.447352192008e-04 1.081024141043e-02 -7.868119334556e+07 8.691291559459e+07 1.286291673047e+07 -2.722144479487e+07 -9.376504501402e-04 9.579487361706e-08 1.966811921200e-03 0.000000000000e+00 3.101324046998e+07 1.702326573139e+08  2.567434441384e-03
7.880000000000e+02 4.511441113274e+06 1.000000000000e+00 5.458452954715e+01 7.516061325586e-04 1.072852044110e-02 -7.867835746564e+07 8.691291484631e+07 1.282454542043e+07 -2.710565670337e+07 -9.418458179988e-04 9.573928715659e-08 1.961086000572e-03 0.000000000000e+00 3.098648958286e+07 1.702205544942e+08  2.565145711727e-03
8.740000000000e+02 4.519827167133e+06 1.000000000000e+00 5.400168344939e+01 7.619602952232e-04 1.061299355812e-02 -7.866781323780e+07 8.691291634557e+07 1.282197310873e+07 -2.689948926444e+07 -9.491118229822e-04 9.585066049976e-08 1.953332809834e-03 0.000000000000e+00 3.091510979784e+07 1.702223033447e+08  2.563250594478e-03
9.370000000000e+02 4.525201002277e+06 1.000000000000e+00 5.359758949594e+01 7.700252267513e-04 1.051803780804e-02 -7.866463887864e+07 8.691291661101e+07 1.277783593218e+07 -2.677046039053e+07 -9.537864192443e-04 9.587037895924e-08 1.946900927959e-03 0.000000000000e+00 3.088575444566e+07 1.702085928288e+08  2.560675584509e-03
1.000000000000e+03 4.529391016053e+06 1.000000000000e+00 5.327744951566e+01 7.768613706807e-04 1.043853626427e-02 -7.866262293251e+07 8.691291623744e+07 1.273657077555e+07 -2.667026009816e+07 -9.574332663903e-04 9.584262818314e-08 1.941646496996e-03 0.000000000000e+00 3.086543741837e+07 1.701955445605e+08  2.558450029655e-03
1.100000000000e+03 4.533536316160e+06 1.000000000000e+00 5.295519145958e+01 7.840343459194e-04 1.035536329234e-02 -7.866111312432e+07 8.691291677952e+07 1.268909879582e+07 -2.657132147700e+07 -9.610520508719e-04 9.588289716542e-08 1.936208388964e-03 0.000000000000e+00 3.084777860183e+07 1.701803731787e+08  2.556036197061e-03
1.200000000000e+03 4.536797682875e+06 1.000000000000e+00 5.267850939785e+01 7.899704684965e-04 1.028624481783e-02 -7.865942388730e+07 8.691291642853e+07 1.265284443040e+07 -2.648491526199e+07 -9.641986814831e-04 9.585682306976e-08 1.931652424548e-03 0.000000000000e+00 3.083049823963e+07 1.701690397546e+08  2.554105897380e-03
1.300000000000e+03 4.539703052078e+06 1.000000000000e+00 5.241293296211e+01 7.956032216394e-04 1.022045663612e-02 -7.865772122114e+07 8.691291698077e+07 1.261903145309e+07 -2.640165955392e+07 -9.672277944685e-04 9.589784664261e-08 1.927304159090e-03 0.000000000000e+00 3.081344977399e+07 1.701585829675e+08  2.552287818154e-03
1.400000000000e+03 4.542442562525e+06 1.000000000000e+00 5.214105380058e+01 8.014064454878e-04 1.015247970360e-02 -7.865611035693e+07 8.691291687793e+07 1.258304417040e+07 -2.631687771544e+07 -9.703170020839e-04 9.589020728445e-08 1.922818448876e-03 0.000000000000e+00 3.079664796732e+07 1.701474555150e+08  2.550390035332e-03
1.500000000000e+03 4.545082446453e+06 1.000000000000e+00 5.185280185966e+01 8.076530265217e-04 1.007909239094e-02 -7.865465589791e+07 8.691291878330e+07 1.254214534987e+07 -2.622788578214e+07 -9.735683939859e-04 9.603174937404e-08 1.917993935162e-03 0.000000000000e+00 3.078013211006e+07 1.701347565978e+08  2.548300307241e-03
1.600000000000e+03 4.547643486992e+06 1.000000000000e+00 5.154203532847e+01 8.145110013430e-04 9.998324074702e-03 -7.865340934570e+07 8.691291801823e+07 1.249458392951e+07 -2.613307489122e+07 -9.770436408525e-04 9.597491549257e-08 1.912705820743e-03 0.000000000000e+00 3.076396676913e+07 1.701199138049e+08  2.545948726791e-03
1.700000000000e+03 4.550130771774e+06 1.000000000000e+00 5.120496310407e+01 8.220822766525e-04 9.908951693712e-03 -7.865239731819e+07 8.691291753910e+07 1.243929995038e+07 -2.603144413085e+07 -9.807809080729e-04 9.593932300911e-08 1.906877558990e-03 0.000000000000e+00 3.074818049955e+07 1.701026037231e+08  2.543293602030e-03
1.800000000000e+03 4.552544175197e+06 1.000000000000e+00 5.083929706478e+01 8.304293894249e-04 9.810238257842e-03 -7.865163999321e+07 8.691291797991e+07 1.237562997788e+07 -2.592239774293e+07 -9.848030732677e-04 9.597206869450e-08 1.900462379889e-03 0.000000000000e+00 3.073280258608e+07 1.700826382449e+08  2.540310132733e-03
1.900000000000e+03 4.554883463306e+06 1.000000000000e+00 5.044375052886e+01 8.395867902120e-04 9.701767022050e-03 -7.865114733196e+07 8.691291777844e+07 1.230320436083e+07 -2.580559927305e+07 -9.891230033025e-04 9.595710208434e-08 1.893434056660e-03 0.000000000000e+00 3.071784741473e+07 1.700599285788e+08  2.536985622916e-03
2.000000000000e+03 4.557147803229e+06 1.000000000000e+00 5.001772135124e+01 8.495713550189e-04 9.583347263765e-03 -7.865092577459e+07 8.691291847822e+07 1.222184711406e+07 -2.568089269837e+07 -9.937467325170e-04 9.600908560789e-08 1.885780257578e-03 0.000000000000e+00 3.070332378630e+07 1.700344602312e+08  2.533315563668e-03