 TITLE = "Time curves in points"
 VARIABLES = "TIME"  "PRESSURE1"  "SATURATION1"  "TEMPERATURE1"  "DISPLACEMENT_X1"  "DISPLACEMENT_Y1"  "STRESS_XX"  "STRESS_XY"  "STRESS_YY"  "STRESS_ZZ"  "STRAIN_XX"  "STRAIN_XY"  "STRAIN_YY"  "STRAIN_PLS"  p_(1st_Invariant)  q_(2nd_Invariant)   Effective_Strain
 ZONE T="POINT=POINT18"
0.000000000000e+00 1.000000000000e+05 1.000000000000e+00 2.500000000000e+01 0.000000000000e+00 0.000000000000e+00 -3.397085603022e+07 8.493812196668e+05 -1.677136773138e+07 -1.221961712848e+07 0.000000000000e+00 0.000000000000e+00 0.000000000000e+00 0.000000000000e+00 2.098728029670e+07 1.992468212785e+07  0.000000000000e+00
1.000000000000e-03 3.083650975032e+05 1.000000000000e+00 2.500000000001e+01 -2.591699773527e-06 6.303339598653e-05 -3.393533692069e+07 8.499675464709e+05 -1.672798228865e+07 -1.219594576281e+07 4.400590577708e-07 4.355570544723e-08 7.322371479850e-07 0.000000000000e+00 2.095308832405e+07 1.991944032095e+07  6.428739567281e-07
2.000000000000e-03 3.159689439173e+05 1.000000000000e+00 2.499999999999e+01 -2.299300695304e-06 6.240424335343e-05 -3.393718097888e+07 8.499193553855e+05 -1.672759142141e+07 -1.219638172009e+07 3.877581667067e-07 3.997579624279e-08 7.629477729116e-07 0.000000000000e+00 2.095371804013e+07 1.992107381605e+07  6.643799087699e-07
3.000000000000e-03 3.211298798470e+05 1.000000000000e+00 2.499999999994e+01 -2.079696708094e-06 6.190691104703e-05 -3.393877945037e+07 8.498914383843e+05 -1.672770066726e+07 -1.219689403528e+07 3.474152184579e-07 3.790196187248e-08 7.779189196704e-07 0.000000000000e+00 2.095445805097e+07 1.992226036071e+07  6.781622109193e-07
4.000000000000e-03 3.246441808822e+05 1.000000000000e+00 2.499999999989e+01 -1.902746730420e-06 6.138369682988e-05 -3.394040123186e+07 8.498716846810e+05 -1.672845660900e+07 -1.219760735223e+07 3.136722497838e-07 3.643454391309e-08 7.763357132985e-07 0.000000000000e+00 2.095548839769e+07 1.992313240510e+07  6.793783027296e-07
1.000000000000e-02 3.282972316046e+05 1.000000000000e+00 2.499999999994e+01 -8.784655650678e-07 5.856308482889e-05 -3.395264782222e+07 8.498095754579e+05 -1.673698360189e+07 -1.220383942721e+07 9.027596408995e-08 3.182071590935e-08 6.910959054651e-07 0.000000000000e+00 2.096449028377e+07 1.992827407412e+07  6.530020099368e-07
2.000000000000e-02 3.209720154730e+05 1.000000000000e+00 2.499999999911e+01 1.436046442967e-06 5.672223677171e-05 -3.397609817288e+07 8.497488852093e+05 -1.674457564371e+07 -1.221315214514e+07 -4.348361085451e-07 2.731229743906e-08 7.550067325773e-07 0.000000000000e+00 2.097794198725e+07 1.994263556317e+07  1.043867655321e-06
3.000000000000e-02 3.083467034309e+05 1.000000000000e+00 2.499999998948e+01 4.215629092924e-06 5.706014735467e-05 -3.400102137107e+07 8.497085212784e+05 -1.674579670920e+07 -1.222099542790e+07 -1.069232967115e-06 2.431383400282e-08 1.000974802461e-06 0.000000000000e+00 2.098927116939e+07 1.996143985636e+07  1.793671775643e-06
4.000000000000e-02 2.935043100365e+05 1.000000000000e+00 2.499999996592e+01 7.301718387201e-06 5.973245593360e-05 -3.402575045385e+07 8.496781368167e+05 -1.674018480667e+07 -1.222673061878e+07 -1.774720380581e-06 2.205670256018e-08 1.422438272010e-06 0.000000000000e+00 2.099755529310e+07 1.998363119951e+07  2.774680657799e-06
5.000000000000e-02 2.781876015460e+05 1.000000000000e+00 2.500000002206e+01 1.058513372787e-05 6.340841518186e-05 -3.405088644178e+07 8.496540293608e+05 -1.673142817245e+07 -1.223164463023e+07 -2.525822364310e-06 2.026586298021e-08 1.930205111164e-06 0.000000000000e+00 2.100465308149e+07 2.000777938351e+07  3.870666317354e-06
6.000000000000e-02 2.628169376310e+05 1.000000000000e+00 2.500000066198e+01 1.399510414100e-05 6.940147723495e-05 -3.407432184915e+07 8.496351105140e+05 -1.671609184590e+07 -1.223407515022e+07 -3.306003895665e-06 1.886046293476e-08 2.590116553835e-06 0.000000000000e+00 2.100816294842e+07 2.003402452457e+07  5.118824873835e-06
7.000000000000e-02 2.482548207077e+05 1.000000000000e+00 2.500000344145e+01 1.749258821217e-05 7.541231959634e-05 -3.409838977803e+07 8.496205257485e+05 -1.670041821157e+07 -1.223659583816e+07 -4.106329987747e-06 1.777702320693e-08 3.265905666869e-06 0.000000000000e+00 2.101180127592e+07 2.006096071110e+07  6.398431076274e-06
8.000000000000e-02 2.351205290081e+05 1.000000000000e+00 2.500001194551e+01 2.105276212013e-05 8.220953874020e-05 -3.412206266795e+07 8.496082148104e+05 -1.668252617636e+07 -1.223833610783e+07 -4.920970168469e-06 1.686249637983e-08 3.995105562194e-06 0.000000000000e+00 2.101430831738e+07 2.008876242177e+07  7.735467935091e-06
9.000000000000e-02 2.243279765763e+05 1.000000000000e+00 2.500003296209e+01 2.466119074484e-05 8.839190149249e-05 -3.414681299161e+07 8.495976657174e+05 -1.666614506472e+07 -1.224085993758e+07 -5.746525656444e-06 1.607884947191e-08 4.697289099711e-06 0.000000000000e+00 2.101793933130e+07 2.011664206563e+07  9.059853747266e-06
1.000000000000e-01 2.168958664196e+05 1.000000000000e+00 2.500007761001e+01 2.830118396903e-05 9.392755541369e-05 -3.417254127635e+07 8.495886432558e+05 -1.665138729196e+07 -1.224417644684e+07 -6.578963031400e-06 1.540860946977e-08 5.368619574793e-06 0.000000000000e+00 2.102270167172e+07 2.014445747160e+07  1.036462699258e-05
2.000000000000e-01 2.305342222078e+05 1.000000000000e+00 2.502667785432e+01 6.442114968432e-05 1.887324382672e-04 -3.438481549910e+07 8.495330433115e+05 -1.640498855436e+07 -1.224441885052e+07 -1.445443059692e-05 1.127832788951e-08 1.452957625091e-05 0.000000000000e+00 2.101140763466e+07 2.043418605340e+07  2.510092195588e-05
3.000000000000e-01 2.539215366433e+05 1.000000000000e+00 2.509252329441e+01 9.887245680814e-05 2.983913156097e-04 -3.457733015269e+07 8.495118429424e+05 -1.614047299954e+07 -1.224798292312e+07 -2.147259503353e-05 9.703443326364e-09 2.448681955512e-05 0.000000000000e+00 2.098859535845e+07 2.071230251091e+07  3.983054747095e-05
4.000000000000e-01 2.778424060555e+05 1.000000000000e+00 2.519884269912e+01 1.306424119096e-04 4.038128012007e-04 -3.476800553123e+07 8.495145154471e+05 -1.591228579546e+07 -1.227662064161e+07 -2.749113669282e-05 9.901972252262e-09 3.402603096450e-05 0.000000000000e+00 2.098563732277e+07 2.096364318993e+07  5.337553692813e-05
5.000000000000e-01 3.006476900648e+05 1.000000000000e+00 2.534048625341e+01 1.593348876828e-04 5.062272494337e-04 -3.495416433104e+07 8.495268981328e+05 -1.571577616053e+07 -1.232597534204e+07 -3.257243181259e-05 1.082182889745e-08 4.315813484981e-05 0.000000000000e+00 2.099863861120e+07 2.118928315935e+07  6.579782423295e-05
6.000000000000e-01 3.220253449416e+05 1.000000000000e+00 2.551037594353e+01 1.848343710397e-04 6.060825532469e-04 -3.513447607412e+07 8.495368559838e+05 -1.554653710702e+07 -1.239160502675e+07 -3.683205112311e-05 1.156155497408e-08 5.188183084063e-05 0.000000000000e+00 2.102420606930e+07 2.139169710547e+07  7.719610746795e-05
7.000000000000e-01 3.420511584359e+05 1.000000000000e+00 2.570176351459e+01 2.072377956880e-04 7.035622293210e-04 -3.530850276630e+07 8.495398569325e+05 -1.540047766832e+07 -1.246964877482e+07 -4.039713190468e-05 1.178448259016e-08 6.020566349212e-05 0.000000000000e+00 2.105954306981e+07 2.157385895894e+07  8.768572705277e-05
8.000000000000e-01 3.610103641588e+05 1.000000000000e+00 2.590902649044e+01 2.267425812788e-04 7.988316789363e-04 -3.547606173139e+07 8.495342648570e+05 -1.527388837174e+07 -1.255690346246e+07 -4.337986220984e-05 1.136907126908e-08 6.814844004892e-05 0.000000000000e+00 2.110228452186e+07 2.173853585237e+07  9.737706430854e-05
9.000000000000e-01 3.788546175728e+05 1.000000000000e+00 2.612776105972e+01 2.436662018251e-04 8.918571734330e-04 -3.563794955345e+07 8.495218860407e+05 -1.516401132621e+07 -1.265121704934e+07 -4.588976237371e-05 1.044950205821e-08 7.573266353853e-05 0.000000000000e+00 2.115105930967e+07 2.188853898089e+07  1.063797954437e-04
1.000000000000e+00 3.956972551497e+05 1.000000000000e+00 2.635461483105e+01 2.582784037005e-04 9.826965832232e-04 -3.579443703614e+07 8.495038299609e+05 -1.506840394382e+07 -1.275076819841e+07 -4.800454047994e-05 9.108193276786e-09 8.298140899238e-05 0.000000000000e+00 2.120453639279e+07 2.202589949626e+07  1.147773270336e-04
2.000000000000e+00 5.150057627839e+05 1.000000000000e+00 2.862803369585e+01 3.110872377305e-04 1.735802286552e-03 -3.704390493125e+07 8.493296450553e+05 -1.466199160371e+07 -1.380630126740e+07 -5.520783402096e-05 -3.831256858818e-09 1.372822384737e-04 0.000000000000e+00 2.183739926745e+07 2.286915651338e+07  1.716781087307e-04
3.000000000000e+00 6.107955930557e+05 1.000000000000e+00 3.070915667974e+01 3.272125340198e-04 2.378438283473e-03 -3.808440032027e+07 8.492307200100e+05 -1.447359750968e+07 -1.479244703342e+07 -5.722653430388e-05 -1.117997450643e-08 1.809080047039e-04 0.000000000000e+00 2.245014828779e+07 2.349908422887e+07  2.153028585653e-04
4.000000000000e+00 6.926709898540e+05 1.000000000000e+00 3.256538003682e+01 3.291004399397e-04 2.938759396107e-03 -3.897300257133e+07 8.491827436503e+05 -1.437583328814e+07 -1.567965311917e+07 -5.727839187297e-05 -1.474393265963e-08 2.174926161173e-04 0.000000000000e+00 2.300949632621e+07 2.401694692911e+07  2.510806248771e-04
5.000000000000e+00 7.655249447360e+05 1.000000000000e+00 3.421390786706e+01 3.257914796100e-04 3.436085903007e-03 -3.974637236446e+07 8.491622929597e+05 -1.431648885219e+07 -1.647045587870e+07 -5.663088169192e-05 -1.626312681398e-08 2.490695119495e-04 0.000000000000e+00 2.351110569845e+07 2.446848276098e+07  2.816872474957e-04
6.000000000000e+00 8.320078002305e+05 1.000000000000e+00 3.568672708440e+01 3.211679341127e-04 3.884839732946e-03 -4.043260546208e+07 8.491548644816e+05 -1.427241223014e+07 -1.717801610165e+07 -5.583873132269e-05 -1.681495661402e-08 2.769874519068e-04 0.000000000000e+00 2.396101126463e+07 2.487871132129e+07  3.087177370748e-04
7.000000000000e+00 8.939780193959e+05 1.000000000000e+00 3.700928498412e+01 3.157370386635e-04 4.292070752063e-03 -4.104343900332e+07 8.491529207351e+05 -1.423913341114e+07 -1.781353884096e+07 -5.492170396605e-05 -1.695934921271e-08 3.018286526438e-04 0.000000000000e+00 2.436537041847e+07 2.525076036584e+07  3.327068888603e-04
8.000000000000e+00 9.520385377497e+05 1.000000000000e+00 3.821072827080e+01 3.109507983723e-04 4.667502167863e-03 -4.159932868923e+07 8.491535468617e+05 -1.420713260448e+07 -1.839062956162e+07 -5.413423696111e-05 -1.691283695349e-08 3.244520522299e-04 0.000000000000e+00 2.473236361845e+07 2.560082165487e+07  3.546316609436e-04
9.000000000000e+00 1.007090273366e+06 1.000000000000e+00 3.931176277075e+01 3.065456663622e-04 5.015626897562e-03 -4.210841330971e+07 8.491549385555e+05 -1.417727043754e+07 -1.891923155609e+07 -5.340930592697e-05 -1.680945398662e-08 3.451950067969e-04 0.000000000000e+00 2.506830510112e+07 2.592970760013e+07  3.747649573363e-04
1.000000000000e+01 1.059630031119e+06 1.000000000000e+00 4.032707739919e+01 3.023502550990e-04 5.339804285199e-03 -4.257691625182e+07 8.491570622683e+05 -1.414975429692e+07 -1.940639566914e+07 -5.271617672066e-05 -1.665169245924e-08 3.643117019329e-04 0.000000000000e+00 2.537768873929e+07 2.623866656003e+07  3.933282755481e-04
1.100000000000e+01 1.109950423624e+06 1.000000000000e+00 4.126965432734e+01 2.984748919674e-04 5.643646254608e-03 -4.301149940112e+07 8.491582010701e+05 -1.412304613398e+07 -1.985820928440e+07 -5.207618798476e-05 -1.656709575936e-08 3.820853679807e-04 0.000000000000e+00 2.566425160650e+07 2.653145387706e+07  4.106077301422e-04
1.200000000000e+01 1.158414524305e+06 1.000000000000e+00 4.214857045805e+01 2.947299607034e-04 5.929133429666e-03 -4.341560668506e+07 8.491596435178e+05 -1.409785348484e+07 -2.027907880095e+07 -5.145359077373e-05 -1.645994249653e-08 3.986533912776e-04 0.000000000000e+00 2.593084632362e+07 2.680824084354e+07  4.267131913227e-04
1.300000000000e+01 1.205265988134e+06 1.000000000000e+00 4.297047241277e+01 2.910285363047e-04 6.197855213262e-03 -4.379211687938e+07 8.491611127119e+05 -1.407436812119e+07 -2.067223949397e+07 -5.083514367909e-05 -1.635080236941e-08 4.141288162397e-04 0.000000000000e+00 2.617957483151e+07 2.706964790864e+07  4.417456133910e-04
1.400000000000e+01 1.251210413433e+06 1.000000000000e+00 4.374060683530e+01 2.873278185916e-04 6.451351785841e-03 -4.414315194515e+07 8.491622182190e+05 -1.405200894475e+07 -2.103998388509e+07 -5.021451159450e-05 -1.626867898176e-08 4.286183773205e-04 0.000000000000e+00 2.641171492500e+07 2.731658391971e+07  4.558048637554e-04
1.500000000000e+01 1.295786606581e+06 1.000000000000e+00 4.446330145891e+01 2.836075439871e-04 6.690557576773e-03 -4.447095128930e+07 8.491635080455e+05 -1.403123899582e+07 -2.138463463285e+07 -4.958860231761e-05 -1.617286329878e-08 4.421911460547e-04 0.000000000000e+00 2.662894163932e+07 2.754952813250e+07  4.689559476152e-04
1.600000000000e+01 1.339131724233e+06 1.000000000000e+00 4.514222035109e+01 2.798765826669e-04 6.916484468094e-03 -4.477737197147e+07 8.491643158237e+05 -1.401188546948e+07 -2.170797815204e+07 -4.896003979976e-05 -1.611285691687e-08 4.549198934600e-04 0.000000000000e+00 2.683241186433e+07 2.776930331940e+07  4.812713287027e-04
1.700000000000e+01 1.381371181862e+06 1.000000000000e+00 4.578051508854e+01 2.761523081515e-04 7.130022911384e-03 -4.506407367154e+07 8.491651554905e+05 -1.399376751110e+07 -2.201156047972e+07 -4.833304505987e-05 -1.605048166927e-08 4.668687612280e-04 0.000000000000e+00 2.702313388745e+07 2.797672052097e+07  4.928161047507e-04
1.800000000000e+01 1.422623258432e+06 1.000000000000e+00 4.638092652595e+01 2.724370189752e-04 7.331958572341e-03 -4.533238460423e+07 8.491660035888e+05 -1.397673393279e+07 -2.229669362505e+07 -4.770822001918e-05 -1.598748008512e-08 4.780920966774e-04 0.000000000000e+00 2.720193738735e+07 2.817239885605e+07  5.036437737799e-04
1.900000000000e+01 1.462974446505e+06 1.000000000000e+00 4.694585896327e+01 2.687324446661e-04 7.522982908065e-03 -4.558347249546e+07 8.491665755316e+05 -1.396066633439e+07 -2.256453361686e+07 -4.708599914060e-05 -1.594499290244e-08 4.886372357425e-04 0.000000000000e+00 2.736955748224e+07 2.835689027424e+07  5.138009465679e-04
2.000000000000e+01 1.502507800416e+06 1.000000000000e+00 4.747743591083e+01 2.650003509856e-04 7.703715462940e-03 -4.581802853945e+07 8.491665399924e+05 -1.394548357721e+07 -2.281600648603e+07 -4.645765991941e-05 -1.594763295673e-08 4.985415875783e-04 0.000000000000e+00 2.752650620090e+07 2.853037697322e+07  5.233193145725e-04
2.100000000000e+01 1.541141801111e+06 1.000000000000e+00 4.798108112960e+01 2.616974712154e-04 7.876430918234e-03 -4.604096752605e+07 8.491668602344e+05 -1.392852690957e+07 -2.305372191921e+07 -4.590882047498e-05 -1.592384355522e-08 5.080008370373e-04 0.000000000000e+00 2.767440545161e+07 2.869858875484e+07  5.324417247150e-04
2.200000000000e+01 1.579012597869e+06 1.000000000000e+00 4.845978641530e+01 2.586070208835e-04 8.041534105237e-03 -4.625261958376e+07 8.491675814581e+05 -1.391115230629e+07 -2.327922122488e+07 -4.539449412252e-05 -1.587026693105e-08 5.170218679409e-04 0.000000000000e+00 2.781433103831e+07 2.886030809405e+07  5.411489803434e-04
2.300000000000e+01 1.616195873616e+06 1.000000000000e+00 4.891513136759e+01 2.555679046613e-04 8.199308842157e-03 -4.645289675126e+07 8.491676164118e+05 -1.389401752222e+07 -2.349321537887e+07 -4.488500605286e-05 -1.586767037637e-08 5.256066570691e-04 0.000000000000e+00 2.794670988412e+07 2.901464025892e+07  5.494259553963e-04
2.400000000000e+01 1.652744292822e+06 1.000000000000e+00 4.934819090550e+01 2.525488673569e-04 8.350021603305e-03 -4.664229747279e+07 8.491680542286e+05 -1.387733261934e+07 -2.369628669110e+07 -4.437724125512e-05 -1.583514683845e-08 5.337690307730e-04 0.000000000000e+00 2.807197226108e+07 2.916162469762e+07  5.572844117317e-04
2.500000000000e+01 1.688706440365e+06 1.000000000000e+00 4.975985551106e+01 2.495374465171e-04 8.493931601643e-03 -4.682124602850e+07 8.491682325746e+05 -1.386115310270e+07 -2.388888804028e+07 -4.387013749769e-05 -1.582189827742e-08 5.415237486465e-04 0.000000000000e+00 2.819042905716e+07 2.930138867595e+07  5.647382414664e-04
2.600000000000e+01 1.724115300852e+06 1.000000000000e+00 5.015093021922e+01 2.465334026674e-04 8.631284261576e-03 -4.699017127744e+07 8.491684175765e+05 -1.384548252824e+07 -2.407142981489e+07 -4.336438083005e-05 -1.580815528365e-08 5.488859216121e-04 0.000000000000e+00 2.830236120686e+07 2.943412664261e+07  5.718026961772e-04
2.700000000000e+01 1.758998235123e+06 1.000000000000e+00 5.052216656485e+01 2.435357877406e-04 8.762316599917e-03 -4.714944225792e+07 8.491687168256e+05 -1.383030079066e+07 -2.424427929025e+07 -4.286003673452e-05 -1.578592534773e-08 5.558699380926e-04 0.000000000000e+00 2.840800744628e+07 2.956001650827e+07  5.784919857161e-04
2.800000000000e+01 1.793391624023e+06 1.000000000000e+00 5.087427294239e+01 2.405485790909e-04 8.887247829586e-03 -4.729944509335e+07 8.491689194580e+05 -1.381559209878e+07 -2.440779531853e+07 -4.235811814268e-05 -1.577087265237e-08 5.624897134131e-04 0.000000000000e+00 2.850761083689e+07 2.967926327376e+07  5.848203949496e-04
2.900000000000e+01 1.827319648265e+06 1.000000000000e+00 5.120791808599e+01 2.375735525618e-04 9.006286417091e-03 -4.744052198966e+07 8.491689392177e+05 -1.380133414815e+07 -2.456230784025e+07 -4.185908062768e-05 -1.576940479191e-08 5.687583309571e-04 0.000000000000e+00 2.860138799269e+07 2.979205198898e+07  5.908010860208e-04
3.000000000000e+01 1.860795160606e+06 1.000000000000e+00 5.152373270005e+01 2.346090419844e-04 9.119634211689e-03 -4.757296043058e+07 8.491691994395e+05 -1.378749587059e+07 -2.470811447760e+07 -4.136254761743e-05 -1.575007402717e-08 5.746879992252e-04 0.000000000000e+00 2.868952359292e+07 2.989853873288e+07  5.964459047359e-04
3.100000000000e+01 1.893730299869e+06 1.000000000000e+00 5.182511079230e+01 2.320057464114e-04 9.228840108195e-03 -4.770013074274e+07 8.491694132905e+05 -1.377202900321e+07 -2.484682721640e+07 -4.093382891354e-05 -1.573418795602e-08 5.804146703121e-04 0.000000000000e+00 2.877299565412e+07 3.000306032168e+07  6.019263770755e-04
3.200000000000e+01 1.926193300668e+06 1.000000000000e+00 5.211364601199e+01 2.295846066687e-04 9.334011372276e-03 -4.782185605031e+07 8.491694451532e+05 -1.375604297746e+07 -2.497927447468e+07 -4.053558503027e-05 -1.573182100957e-08 5.859279065762e-04 0.000000000000e+00 2.885239116748e+07 3.010440674614e+07  6.072113113074e-04
3.300000000000e+01 1.958214424838e+06 1.000000000000e+00 5.238991559297e+01 2.272488292187e-04 9.435206269200e-03 -4.793797669507e+07 8.491696133794e+05 -1.374000215399e+07 -2.510573960798e+07 -4.015136117002e-05 -1.571932420784e-08 5.912209849704e-04 0.000000000000e+00 2.892790615235e+07 3.020197870323e+07  6.122848298899e-04
3.400000000000e+01 1.989824630631e+06 1.000000000000e+00 5.265418160542e+01 2.249556678895e-04 9.532452172492e-03 -4.804847159576e+07 8.491696770052e+05 -1.372415841522e+07 -2.522637850788e+07 -3.977458405647e-05 -1.571459772107e-08 5.962903401210e-04 0.000000000000e+00 2.899966950629e+07 3.029549479815e+07  6.171396829361e-04
3.500000000000e+01 2.021048807738e+06 1.000000000000e+00 5.290663240863e+01 2.227077629905e-04 9.625812033020e-03 -4.815352687535e+07 8.491699098317e+05 -1.370855234188e+07 -2.534132299793e+07 -3.940727052517e-05 -1.569730203598e-08 6.011393610471e-04 0.000000000000e+00 2.906780073839e+07 3.038503584585e+07  6.217802879906e-04
3.600000000000e+01 2.051915334547e+06 1.000000000000e+00 5.314745064832e+01 2.205197644678e-04 9.715335585553e-03 -4.825340490345e+07 8.491697761940e+05 -1.369323454243e+07 -2.545073007285e+07 -3.905333450060e-05 -1.570722940828e-08 6.057719992377e-04 0.000000000000e+00 2.913245650624e+07 3.047074491881e+07  6.262126597678e-04
3.700000000000e+01 2.082462267422e+06 1.000000000000e+00 5.337683014573e+01 2.184654788027e-04 9.801090616405e-03 -4.834883617473e+07 8.491702186511e+05 -1.367815040307e+07 -2.555487003122e+07 -3.872986898010e-05 -1.567436116761e-08 6.102003228676e-04 0.000000000000e+00 2.919395220300e+07 3.055326786054e+07  6.304581001719e-04
3.800000000000e+01 2.113406988325e+06 1.000000000000e+00 5.359501612753e+01 2.189178868036e-04 9.883172837068e-03 -4.845989031024e+07 8.491826931075e+05 -1.366118749022e+07 -2.565921610678e+07 -3.897902549226e-05 -1.474768726479e-08 6.147060852943e-04 0.000000000000e+00 2.926009796908e+07 3.065207839812e+07  6.350933636463e-04
3.900000000000e+01 2.143157947788e+06 1.000000000000e+00 5.380215921442e+01 2.160894420102e-04 9.961652666321e-03 -4.853792310414e+07 8.491682728161e+05 -1.364734854615e+07 -2.575072776018e+07 -3.847838213955e-05 -1.581890891151e-08 6.186191074859e-04 0.000000000000e+00 2.931199980349e+07 3.071991840453e+07  6.387281496897e-04
4.000000000000e+01 2.172544101843e+06 1.000000000000e+00 5.399845064135e+01 2.131150135972e-04 1.003659616437e-02 -4.860942250514e+07 8.491686049176e+05 -1.363388613524e+07 -2.583659414851e+07 -3.794475118148e-05 -1.579423851659e-08 6.223084628863e-04 0.000000000000e+00 2.935996759630e+07 3.078248253875e+07  6.421222373138e-04
4.200000000000e+01 2.229827605392e+06 1.000000000000e+00 5.435968908593e+01 2.079386796669e-04 1.017694182552e-02 -4.874097810400e+07 8.491689877039e+05 -1.360389438155e+07 -2.599306589399e+07 -3.701929430692e-05 -1.576580296404e-08 6.292342499986e-04 0.000000000000e+00 2.944597945985e+07 3.090226740075e+07  6.485367978432e-04
4.400000000000e+01 2.285593809494e+06 1.000000000000e+00 5.469219720801e+01 2.030197858324e-04 1.030778146313e-02 -4.885975970765e+07 8.491693988344e+05 -1.357359480989e+07 -2.613558166294e+07 -3.613773959594e-05 -1.573526183421e-08 6.356531055067e-04 0.000000000000e+00 2.952297872683e+07 3.101315645579e+07  6.544706822360e-04
5.000000000000e+01 2.437116678573e+06 1.000000000000e+00 5.537543848970e+01 1.890373675981e-04 1.058148195482e-02 -4.907860465479e+07 8.491705240191e+05 -1.351369891090e+07 -2.642119793883e+07 -3.365766167122e-05 -1.565167668663e-08 6.484864148594e-04 0.000000000000e+00 2.967116716817e+07 3.121818920352e+07  6.659534559795e-04
6.500000000000e+01 2.768502507756e+06 1.000000000000e+00 5.631568876404e+01 1.626569336109e-04 1.104582173149e-02 -4.927549329301e+07 8.491724467135e+05 -1.329998554787e+07 -2.674293356164e+07 -2.902048795771e-05 -1.550884796313e-08 6.683745200476e-04 0.000000000000e+00 2.977280413417e+07 3.151977807611e+07  6.833470883833e-04
8.000000000000e+01 3.023556374630e+06 1.000000000000e+00 5.663857047303e+01 1.431196153389e-04 1.126618835191e-02 -4.923916501550e+07 8.491742642965e+05 -1.314873409087e+07 -2.679789450404e+07 -2.562974550410e-05 -1.537382750978e-08 6.760338377397e-04 0.000000000000e+00 2.972859787014e+07 3.159712002751e+07  6.892062169962e-04
1.000000000000e+02 3.324236305531e+06 1.000000000000e+00 5.678970307341e+01 1.249017492913e-04 1.145067466496e-02 -4.911263106138e+07 8.491759805233e+05 -1.296510884527e+07 -2.675608008362e+07 -2.248301996623e-05 -1.524633637832e-08 6.813010969607e-04 0.000000000000e+00 2.961127333009e+07 3.163049336287e+07  6.928162655207e-04
1.860000000000e+02 3.922717201764e+06 1.000000000000e+00 5.651434013221e+01 9.165651680646e-05 1.167000298446e-02 -4.854834519385e+07 8.491788188062e+05 -1.249030141528e+07 -2.634486021543e+07 -1.679771141956e-05 -1.503549250615e-08 6.836629206848e-04 0.000000000000e+00 2.912783560819e+07 3.153928260019e+07  6.922146526594e-04
2.720000000000e+02 4.213038211969e+06 1.000000000000e+00 5.565863389374e+01 7.689982738685e-05 1.150191366959e-02 -4.797022658590e+07 8.491800996411e+05 -1.236357648986e+07 -2.583240004808e+07 -1.435896934007e-05 -1.494034476984e-08 6.693356116986e-04 0.000000000000e+00 2.872206770795e+07 3.117412985130e+07  6.766293751269e-04
3.580000000000e+02 4.354403691727e+06 1.000000000000e+00 5.491482439366e+01 6.887407142900e-05 1.132602087346e-02 -4.751555789906e+07 8.491807799799e+05 -1.228960460757e+07 -2.541260964817e+07 -1.306349011110e-05 -1.488980531236e-08 6.564909239016e-04 0.000000000000e+00 2.840592405160e+07 3.087027709589e+07  6.631191833273e-04
4.440000000000e+02 4.426532453840e+06 1.000000000000e+00 5.428887031940e+01 6.372216344791e-05 1.116143207614e-02 -4.715547537969e+07 8.491813957831e+05 -1.225474444191e+07 -2.507446284559e+07 -1.224873491597e-05 -1.484405993128e-08 6.452259916731e-04 0.000000000000e+00 2.816156088907e+07 3.061293818575e+07  6.514367311040e-04
5.300000000000e+02 4.465496889446e+06 1.000000000000e+00 5.377624834960e+01 6.026042208613e-05 1.101878557916e-02 -4.687130565211e+07 8.491817850956e+05 -1.223927414506e+07 -2.480474784666e+07 -1.171184499472e-05 -1.481513957384e-08 6.357826170246e-04 0.000000000000e+00 2.797177588128e+07 3.040171349823e+07  6.417187012572e-04
6.160000000000e+02 4.488012314786e+06 1.000000000000e+00 5.336720502353e+01 5.791905371286e-05 1.090056148376e-02 -4.665057032378e+07 8.491818608214e+05 -1.223433444522e+07 -2.459359552111e+07 -1.135590489147e-05 -1.480951423420e-08 6.281232909267e-04 0.000000000000e+00 2.782616676337e+07 3.023297390956e+07  6.338775387962e-04
7.020000000000e+02 4.501822576458e+06 1.000000000000e+00 5.305912787775e+01 5.631636644307e-05 1.080987432968e-02 -4.648668352643e+07 8.491821545185e+05 -1.223359571808e+07 -2.443618140013e+07 -1.111549119776e-05 -1.478769673617e-08 6.223039191554e-04 0.000000000000e+00 2.771882021488e+07 3.010588337639e+07  6.279354555465e-04
7.880000000000e+02 4.511441113274e+06 1.000000000000e+00 5.280009927160e+01 5.534508342876e-05 1.072815294436e-02 -4.635576318747e+07 8.491820829483e+05 -1.224307665814e+07 -2.430895606694e+07 -1.097824812629e-05 -1.479301337505e-08 6.172262575777e-04 0.000000000000e+00 2.763593197085e+07 2.999707647110e+07  6.227879564005e-04
8.740000000000e+02 4.519827167133e+06 1.000000000000e+00 5.241137386379e+01 5.332827217913e-05 1.061262589802e-02 -4.614878578631e+07 8.491823728285e+05 -1.224165110124e+07 -2.411012872080e+07 -1.067553179696e-05 -1.477147941915e-08 6.098941911202e-04 0.000000000000e+00 2.750018853612e+07 2.983775806778e+07  6.153014194896e-04
9.370000000000e+02 4.525201002277e+06 1.000000000000e+00 5.210907649775e+01 5.244833112059e-05 1.051767044333e-02 -4.599555077160e+07 8.491824678310e+05 -1.224768782420e+07 -2.396003208653e+07 -1.055896338065e-05 -1.476442208819e-08 6.040949521372e-04 0.000000000000e+00 2.740109022744e+07 2.971521504665e+07  6.094430408474e-04
1.000000000000e+03 4.529391016053e+06 1.000000000000e+00 5.185429705108e+01 5.199512727185e-05 1.043816915369e-02 -4.586687145175e+07 8.491825197482e+05 -1.224933619444e+07 -2.383266503340e+07 -1.051022204547e-05 -1.476056538270e-08 5.993029506979e-04 0.000000000000e+00 2.731629089320e+07 2.961541070090e+07  6.046265783280e-04
1.100000000000e+03 4.533536316160e+06 1.000000000000e+00 5.158773657568e+01 5.170113868561e-05 1.035499655377e-02 -4.573289912413e+07 8.491827490019e+05 -1.224976355435e+07 -2.369923347156e+07 -1.049013645953e-05 -1.474353510763e-08 5.943310478898e-04 0.000000000000e+00 2.722729871668e+07 2.951287701247e+07  5.996449381887e-04
1.200000000000e+03 4.536797682874e+06 1.000000000000e+00 5.136659202229e+01 5.132754725817e-05 1.028587760069e-02 -4.562128688518e+07 8.491825194805e+05 -1.225107771005e+07 -2.358867153238e+07 -1.045112532489e-05 -1.476058526994e-08 5.901756500803e-04 0.000000000000e+00 2.715367870920e+07 2.942681344510e+07  5.954700028587e-04
1.300000000000e+03 4.539703052078e+06 1.000000000000e+00 5.115655250825e+01 5.093333496978e-05 1.022008950421e-02 -4.551520138542e+07 8.491826157984e+05 -1.225276199645e+07 -2.348376519458e+07 -1.040732788081e-05 -1.475343022770e-08 5.862165697526e-04 0.000000000000e+00 2.708390952549e+07 2.934481346220e+07  5.914889076134e-04
1.400000000000e+03 4.542442562524e+06 1.000000000000e+00 5.094021040217e+01 5.055094582265e-05 1.015211232024e-02 -4.540613909301e+07 8.491826274914e+05 -1.225460516948e+07 -2.337580746229e+07 -1.036630136215e-05 -1.475256160420e-08 5.821382504121e-04 0.000000000000e+00 2.701218390826e+07 2.926061790606e+07  5.873900101193e-04
1.500000000000e+03 4.545082446453e+06 1.000000000000e+00 5.070749560172e+01 5.019902265095e-05 1.007872600529e-02 -4.528919829965e+07 8.491829418079e+05 -1.225652855101e+07 -2.325977973239e+07 -1.033238757619e-05 -1.472921237837e-08 5.777572091307e-04 0.000000000000e+00 2.693516886101e+07 2.917062529075e+07  5.829920779874e-04
1.600000000000e+03 4.547643486992e+06 1.000000000000e+00 5.045226626687e+01 4.988921052136e-05 9.997957156408e-03 -4.516140076495e+07 8.491828179344e+05 -1.225850453734e+07 -2.313263063374e+07 -1.030830280889e-05 -1.473841440581e-08 5.729611345453e-04 0.000000000000e+00 2.685084531201e+07 2.907267257037e+07  5.781842096862e-04
1.700000000000e+03 4.550130771773e+06 1.000000000000e+00 5.017073127728e+01 4.962839685739e-05 9.908584327684e-03 -4.502090850425e+07 8.491827131767e+05 -1.226052321037e+07 -2.299247891896e+07 -1.029565396045e-05 -1.474619641052e-08 5.676805201409e-04 0.000000000000e+00 2.675797021119e+07 2.896546301728e+07  5.728977363245e-04
1.800000000000e+03 4.552544175197e+06 1.000000000000e+00 4.986060250043e+01 4.942093377555e-05 9.809870995972e-03 -4.486661349258e+07 8.491828210389e+05 -1.226257781136e+07 -2.283818931654e+07 -1.029545304546e-05 -1.473818379270e-08 5.618734497289e-04 0.000000000000e+00 2.665579354016e+07 2.884826547535e+07  5.670912732837e-04
1.900000000000e+03 4.554883463306e+06 1.000000000000e+00 4.952059324706e+01 4.926912096430e-05 9.701399586841e-03 -4.469789656843e+07 8.491827955963e+05 -1.226467641602e+07 -2.266912816614e+07 -1.030823859185e-05 -1.474007380953e-08 5.555160873982e-04 0.000000000000e+00 2.654390038353e+07 2.872072153968e+07  5.607412738183e-04
2.000000000000e+03 4.557147803229e+06 1.000000000000e+00 4.915010136740e+01 4.917418532911e-05 9.582980021667e-03 -4.451446376549e+07 8.491829014318e+05 -1.226681019289e+07 -2.248499388057e+07 -1.033429366111e-05 -1.473221174450e-08 5.485975593642e-04 0.000000000000e+00 2.642208927965e+07 2.858274524800e+07  5.538370235883e-04