 TITLE = "Time curves in points"
 VARIABLES = "TIME"  "PRESSURE1"  "SATURATION1"  "TEMPERATURE1"  "DISPLACEMENT_X1"  "DISPLACEMENT_Y1"  "STRESS_XX"  "STRESS_XY"  "STRESS_YY"  "STRESS_ZZ"  "STRAIN_XX"  "STRAIN_XY"  "STRAIN_YY"  "STRAIN_PLS"  p_(1st_Invariant)  q_(2nd_Invariant)   Effective_Strain
 ZONE T="POINT=POINT11"
0.000000000000e+00 1.000000000000e+05 1.000000000000e+00 2.500000000000e+01 0.000000000000e+00 0.000000000000e+00 -5.392170068764e+07 8.391404681268e+05 -2.357515820812e+05 -1.424861648653e+07 0.000000000000e+00 0.000000000000e+00 0.000000000000e+00 0.000000000000e+00 2.280202291875e+07 4.825308313763e+07  0.000000000000e+00
1.000000000000e-03 1.321562803133e+05 1.000000000000e+00 2.500277205228e+01 0.000000000000e+00 -1.572050567646e-03 -7.162103067020e+07 1.794583792390e+06 4.135664617786e+07 -5.932163328642e+06 -9.474396371519e-04 3.404817560218e-03 3.032389773807e-02 0.000000000000e+00 1.206551594032e+07 9.832226972835e+07  3.136789483564e-02
2.000000000000e-03 1.547633506397e+05 1.000000000000e+00 2.501531267034e+01 0.000000000000e+00 -1.572064126244e-03 -7.161035839795e+07 1.794104036535e+06 4.135440688586e+07 -5.932534730679e+06 -9.471308641626e-04 3.404294373632e-03 3.032075910815e-02 0.000000000000e+00 1.206282874759e+07 9.831068716194e+07  3.136448432689e-02
3.000000000000e-03 1.705113530027e+05 1.000000000000e+00 2.504572376140e+01 0.000000000000e+00 -1.571939487918e-03 -7.160650873011e+07 1.793700605971e+06 4.134656021912e+07 -5.940780218755e+06 -9.467931853916e-04 3.403375620023e-03 3.031408571743e-02 0.000000000000e+00 1.206690957658e+07 9.830000107540e+07  3.135745966801e-02
4.000000000000e-03 1.814237251319e+05 1.000000000000e+00 2.509942862538e+01 0.000000000000e+00 -1.571850159555e-03 -7.161123969106e+07 1.793423639193e+06 4.133470178185e+07 -5.958164904351e+06 -9.464452640013e-04 3.402181002866e-03 3.030507458517e-02 0.000000000000e+00 1.207823427119e+07 9.829299408821e+07  3.134804468058e-02
1.000000000000e-02 1.976503504522e+05 1.000000000000e+00 2.592514742895e+01 0.000000000000e+00 -1.571202964411e-03 -7.182411034655e+07 1.794423558936e+06 4.122985493802e+07 -6.245193260097e+06 -9.446008455167e-04 3.392915716375e-03 3.023768415352e-02 0.000000000000e+00 1.227981622288e+07 9.837426840811e+07  3.127791532246e-02
2.000000000000e-02 1.959943450081e+05 1.000000000000e+00 2.757132745974e+01 0.000000000000e+00 -1.567185114147e-03 -7.228836465032e+07 1.796870498408e+06 4.104605503086e+07 -6.824543244941e+06 -9.419107885672e-04 3.377006080265e-03 3.012422971751e-02 0.000000000000e+00 1.268895095480e+07 9.859302520532e+07  3.115996243858e-02
3.000000000000e-02 1.860010577930e+05 1.000000000000e+00 2.911693609690e+01 0.000000000000e+00 -1.560882563532e-03 -7.272922435487e+07 1.798258885617e+06 4.086444936168e+07 -7.374691677391e+06 -9.393930336439e-04 3.361190005527e-03 3.000964030625e-02 0.000000000000e+00 1.307982222353e+07 9.879563448913e+07  3.104101500254e-02
4.000000000000e-02 1.728101533386e+05 1.000000000000e+00 3.047971691095e+01 0.000000000000e+00 -1.552020340194e-03 -7.311502178882e+07 1.798395294836e+06 4.068624855139e+07 -7.865815700792e+06 -9.369512371910e-04 3.345520634135e-03 2.989319622143e-02 0.000000000000e+00 1.343152964607e+07 9.895679947111e+07  3.092033392571e-02
5.000000000000e-02 1.586873379014e+05 1.000000000000e+00 3.166381029465e+01 0.000000000000e+00 -1.542219040782e-03 -7.344629553005e+07 1.797516081106e+06 4.051361918801e+07 -8.297823403256e+06 -9.345369592279e-04 3.330237427575e-03 2.977643395224e-02 0.000000000000e+00 1.374349991510e+07 9.907857713757e+07  3.079948051924e-02
6.000000000000e-02 1.443391385552e+05 1.000000000000e+00 3.269423872565e+01 0.000000000000e+00 -1.529925396011e-03 -7.373081471095e+07 1.795836914044e+06 4.034736531531e+07 -8.678314704900e+06 -9.322374889247e-04 3.315368303730e-03 2.966057334578e-02 0.000000000000e+00 1.402058803351e+07 9.916785365711e+07  3.067970627826e-02
7.000000000000e-02 1.306446531670e+05 1.000000000000e+00 3.359745508684e+01 0.000000000000e+00 -1.517920513651e-03 -7.397850609430e+07 1.793530050246e+06 4.018743775724e+07 -9.016277310420e+06 -9.301855370009e-04 3.300882716283e-03 2.954631398488e-02 0.000000000000e+00 1.426911521583e+07 9.923270625350e+07  3.056175631875e-02
8.000000000000e-02 1.182391507521e+05 1.000000000000e+00 3.439629897410e+01 0.000000000000e+00 -1.505199292259e-03 -7.419519625217e+07 1.790748008354e+06 4.003224330735e+07 -9.319200448643e+06 -9.282795465340e-04 3.286702938928e-03 2.943309187911e-02 0.000000000000e+00 1.449405113116e+07 9.927640316612e+07  3.044499936426e-02
9.000000000000e-02 1.080320191726e+05 1.000000000000e+00 3.510925786073e+01 0.000000000000e+00 -1.493379942902e-03 -7.438640867364e+07 1.787604068717e+06 3.988072644278e+07 -9.593334520729e+06 -9.264647287802e-04 3.272790299827e-03 2.932062131494e-02 0.000000000000e+00 1.469967225053e+07 9.930250878995e+07  3.032911409359e-02
1.000000000000e-01 1.010327053545e+05 1.000000000000e+00 3.575104157980e+01 0.000000000000e+00 -1.482524306125e-03 -7.455705590309e+07 1.784202956719e+06 3.973349565064e+07 -9.843348553975e+06 -9.247478531196e-04 3.259207367461e-03 2.920966127814e-02 0.000000000000e+00 1.488896960214e+07 9.931555229609e+07  3.021486952024e-02
2.000000000000e-01 1.222835569577e+05 1.000000000000e+00 3.942394974232e+01 0.000000000000e+00 -1.341006232344e-03 -7.550255654197e+07 1.752119726973e+06 3.865097748169e+07 -1.134625616466e+07 -9.143148685256e-04 3.155650172560e-03 2.835235671597e-02 0.000000000000e+00 1.606594507498e+07 9.915947539622e+07  2.933410077651e-02
3.000000000000e-01 1.530021814669e+05 1.000000000000e+00 4.184196346855e+01 0.000000000000e+00 -1.185579668752e-03 -7.607116745447e+07 1.720937170344e+06 3.769705600903e+07 -1.240026881136e+07 -9.014091650738e-04 3.066476632756e-03 2.756969071492e-02 0.000000000000e+00 1.692479341893e+07 9.880461453467e+07  2.853001565554e-02
4.000000000000e-01 1.843283954231e+05 1.000000000000e+00 4.359197613477e+01 0.000000000000e+00 -1.038816815183e-03 -7.646879306461e+07 1.691730114877e+06 3.684830600164e+07 -1.321187302425e+07 -8.898761170375e-04 2.987431780129e-03 2.686108051204e-02 0.000000000000e+00 1.761078669574e+07 9.840070147762e+07  2.780264026539e-02
5.000000000000e-01 2.140834871074e+05 1.000000000000e+00 4.494247676127e+01 0.000000000000e+00 -8.980924599802e-04 -7.676660167018e+07 1.665738379153e+06 3.607670868813e+07 -1.387415754490e+07 -8.791561080793e-04 2.916234204385e-03 2.621451686667e-02 0.000000000000e+00 1.818801684232e+07 9.798165482423e+07  2.713915489553e-02
6.000000000000e-01 2.417275596889e+05 1.000000000000e+00 4.603231401737e+01 0.000000000000e+00 -7.623605849430e-04 -7.700251360669e+07 1.642697470231e+06 3.536742558930e+07 -1.443592195632e+07 -8.693289707006e-04 2.851395353905e-03 2.562205766369e-02 0.000000000000e+00 1.869033665790e+07 9.756573625581e+07  2.653131989159e-02
7.000000000000e-01 2.673393205820e+05 1.000000000000e+00 4.694044664154e+01 0.000000000000e+00 -6.313016867165e-04 -7.720027957052e+07 1.622492038589e+06 3.471554630692e+07 -1.492442566672e+07 -8.608085094081e-04 2.792011299702e-03 2.508113123228e-02 0.000000000000e+00 1.913638631010e+07 9.716829668496e+07  2.597653109374e-02
8.000000000000e-01 2.911604910637e+05 1.000000000000e+00 4.771562339451e+01 0.000000000000e+00 -5.052949817269e-04 -7.738131682589e+07 1.605058609718e+06 3.413118642658e+07 -1.535416628726e+07 -8.549650858711e-04 2.737853964307e-03 2.459968317557e-02 0.000000000000e+00 1.953476556219e+07 9.681596768517e+07  2.548322548000e-02
9.000000000000e-01 3.132452819088e+05 1.000000000000e+00 4.838931593439e+01 0.000000000000e+00 -3.834444880264e-04 -7.754547953609e+07 1.590474712175e+06 3.360287070690e+07 -1.573628511037e+07 -8.494982321710e-04 2.689797281040e-03 2.416912198868e-02 0.000000000000e+00 1.989296464652e+07 9.649834773953e+07  2.504205981128e-02
1.000000000000e+00 3.337812167696e+05 1.000000000000e+00 4.898313522616e+01 0.000000000000e+00 -2.652432809218e-04 -7.769911554841e+07 1.578648564645e+06 3.311762668055e+07 -1.608204702322e+07 -8.440456049710e-04 2.646860898115e-03 2.377894430074e-02 0.000000000000e+00 2.022117863036e+07 9.620959976057e+07  2.464221451718e-02
2.000000000000e+00 4.690352977790e+05 1.000000000000e+00 5.218638327448e+01 0.000000000000e+00 6.987812142028e-04 -7.874831590549e+07 1.522555522048e+06 2.970586541923e+07 -1.826948993390e+07 -8.213780758889e-04 2.359242580993e-03 2.123353329810e-02 0.000000000000e+00 2.243731347339e+07 9.416884200967e+07  2.203806782950e-02
3.000000000000e+00 5.730487402418e+05 1.000000000000e+00 5.423497570303e+01 0.000000000000e+00 1.517871287709e-03 -7.953785981958e+07 1.491920713820e+06 2.698897792601e+07 -1.987668873113e+07 -8.068136113682e-04 2.140443564462e-03 1.930304117679e-02 0.000000000000e+00 2.414185687490e+07 9.251261581924e+07  2.006431656440e-02
4.000000000000e+00 6.596389704548e+05 1.000000000000e+00 5.572045736243e+01 0.000000000000e+00 2.229757958239e-03 -8.017371162043e+07 1.472316763101e+06 2.471171818492e+07 -2.116033867497e+07 -7.965533756497e-04 1.961248641558e-03 1.772901325859e-02 0.000000000000e+00 2.554077737016e+07 9.110648569755e+07  1.845573088403e-02
5.000000000000e+00 7.355855904494e+05 1.000000000000e+00 5.690805893406e+01 0.000000000000e+00 2.859171235316e-03 -8.071655043393e+07 1.458488616477e+06 2.275759948801e+07 -2.223996512663e+07 -7.884115859900e-04 1.809662892901e-03 1.639812705381e-02 0.000000000000e+00 2.673297202418e+07 8.989981837241e+07  1.709600176701e-02
6.000000000000e+00 8.043658790823e+05 1.000000000000e+00 5.794534759913e+01 0.000000000000e+00 3.426024892979e-03 -8.118947280157e+07 1.447304387882e+06 2.101520688958e+07 -2.319385543110e+07 -7.810886018696e-04 1.675360578593e-03 1.522159716601e-02 0.000000000000e+00 2.778937378103e+07 8.881525070666e+07  1.589393075805e-02
7.000000000000e+00 8.681887900302e+05 1.000000000000e+00 5.880252401663e+01 0.000000000000e+00 3.938510329434e-03 -8.159998447680e+07 1.437866108241e+06 1.946987413719e+07 -2.402240568754e+07 -7.753346728187e-04 1.556417973206e-03 1.418234517325e-02 0.000000000000e+00 2.871750534238e+07 8.784724542497e+07  1.483251270503e-02
8.000000000000e+00 9.277491355349e+05 1.000000000000e+00 5.963227257211e+01 0.000000000000e+00 4.409430262738e-03 -8.199285728915e+07 1.430256614732e+06 1.807679189318e+07 -2.478932227915e+07 -7.702934299006e-04 1.449618703445e-03 1.325086580712e-02 0.000000000000e+00 2.956846255837e+07 8.699412811579e+07  1.388128360903e-02
9.000000000000e+00 9.841377349233e+05 1.000000000000e+00 6.038454297523e+01 0.000000000000e+00 4.844956518913e-03 -8.234931563306e+07 1.423681155493e+06 1.680784811041e+07 -2.548662202282e+07 -7.653764711945e-04 1.352735028317e-03 1.240368264107e-02 0.000000000000e+00 3.034269651516e+07 8.621627589472e+07  1.301615562381e-02
1.000000000000e+01 1.037849088550e+06 1.000000000000e+00 6.106279558697e+01 0.000000000000e+00 5.250059294067e-03 -8.266713036919e+07 1.417705135915e+06 1.563328662711e+07 -2.612414310266e+07 -7.605643653313e-04 1.263220547563e-03 1.162102579366e-02 0.000000000000e+00 3.105266228158e+07 8.548632538430e+07  1.221689057057e-02
1.100000000000e+01 1.089184506945e+06 1.000000000000e+00 6.170048524836e+01 0.000000000000e+00 5.628572922273e-03 -8.296989425259e+07 1.412523125360e+06 1.455591571230e+07 -2.671587858550e+07 -7.567017790851e-04 1.180986604163e-03 1.090536671291e-02 0.000000000000e+00 3.170995237526e+07 8.482667688298e+07  1.148633619551e-02
1.200000000000e+01 1.138539207075e+06 1.000000000000e+00 6.228114363278e+01 0.000000000000e+00 5.983180490114e-03 -8.325121618270e+07 1.408162927954e+06 1.356817835663e+07 -2.725856026676e+07 -7.531178951067e-04 1.105922890783e-03 1.025052249805e-02 0.000000000000e+00 3.231386603094e+07 8.422556856174e+07  1.081801489625e-02
1.300000000000e+01 1.186176611165e+06 1.000000000000e+00 6.280688468455e+01 0.000000000000e+00 6.316530966697e-03 -8.350978356235e+07 1.404171342563e+06 1.264559608877e+07 -2.776026749817e+07 -7.500722099058e-04 1.035697497201e-03 9.640200771596e-03 0.000000000000e+00 3.287481832392e+07 8.366101114738e+07  1.019533882961e-02
1.400000000000e+01 1.232813656897e+06 1.000000000000e+00 6.328159226279e+01 0.000000000000e+00 6.630468716447e-03 -8.374875256082e+07 1.400516930621e+06 1.178660836161e+07 -2.822338239822e+07 -7.475489344983e-04 9.702509891076e-04 9.073073179598e-03 0.000000000000e+00 3.339517553248e+07 8.313434899279e+07  9.616975276325e-03
1.500000000000e+01 1.278000330133e+06 1.000000000000e+00 6.370911349350e+01 0.000000000000e+00 6.926092722078e-03 -8.396950389448e+07 1.397312403606e+06 1.099023227445e+07 -2.864954082957e+07 -7.453691201818e-04 9.096249289983e-04 8.548201225337e-03 0.000000000000e+00 3.387627081653e+07 8.264585987886e+07  9.081912633086e-03
1.600000000000e+01 1.321884431006e+06 1.000000000000e+00 6.409299534910e+01 0.000000000000e+00 7.205114603674e-03 -8.416956535087e+07 1.394249179297e+06 1.024119670071e+07 -2.904381478873e+07 -7.434711791199e-04 8.524692114591e-04 8.055177509716e-03 0.000000000000e+00 3.432406114630e+07 8.218033852014e+07  8.579483533281e-03
1.700000000000e+01 1.364597167494e+06 1.000000000000e+00 6.443630728847e+01 0.000000000000e+00 7.469030268668e-03 -8.434635694639e+07 1.391461325340e+06 9.528778790036e+06 -2.940962804374e+07 -7.413015960990e-04 7.982654921316e-04 7.586908702923e-03 0.000000000000e+00 3.474240206670e+07 8.172637825858e+07  8.102257873062e-03
1.800000000000e+01 1.406280283414e+06 1.000000000000e+00 6.474175018385e+01 0.000000000000e+00 7.718916418664e-03 -8.450059882984e+07 1.388813057301e+06 8.847269281175e+06 -2.974970338236e+07 -7.388910149320e-04 7.464723077603e-04 7.139200726686e-03 0.000000000000e+00 3.513434431034e+07 8.127971500384e+07  7.645972857483e-03
1.900000000000e+01 1.447022288018e+06 1.000000000000e+00 6.501173646940e+01 0.000000000000e+00 7.955632699081e-03 -8.463312806219e+07 1.386094978478e+06 8.193990134789e+06 -3.006574594074e+07 -7.363906602340e-04 6.967374113821e-04 6.710090783683e-03 0.000000000000e+00 3.550162795605e+07 8.083875315914e+07  7.208686896615e-03
2.000000000000e+01 1.486906096552e+06 1.000000000000e+00 6.524833951027e+01 0.000000000000e+00 8.179115273859e-03 -8.475374671316e+07 1.383695802197e+06 7.587736183361e+06 -3.035506127393e+07 -7.341043239321e-04 6.506519620445e-04 6.312127279845e-03 0.000000000000e+00 3.584035726791e+07 8.042794913576e+07  6.803356804685e-03
2.100000000000e+01 1.525860420285e+06 1.000000000000e+00 6.550193154572e+01 0.000000000000e+00 8.392638905892e-03 -8.487646118478e+07 1.381693133044e+06 7.009765405080e+06 -3.063969769487e+07 -7.318421328308e-04 6.067835319219e-04 5.933877054059e-03 0.000000000000e+00 3.616879782486e+07 8.004261889138e+07  6.418232607432e-03
2.200000000000e+01 1.564044428071e+06 1.000000000000e+00 6.573942750407e+01 0.000000000000e+00 8.596974700214e-03 -8.498752912171e+07 1.379687239889e+06 6.451687612318e+06 -3.091059221063e+07 -7.294609679025e-04 5.644081079671e-04 5.568475674756e-03 0.000000000000e+00 3.648214457334e+07 7.966431647063e+07  6.046295546573e-03
2.300000000000e+01 1.601523755318e+06 1.000000000000e+00 6.595614712614e+01 0.000000000000e+00 8.791698104101e-03 -8.509443255178e+07 1.377925160018e+06 5.931394812505e+06 -3.116306516493e+07 -7.274561514008e-04 5.248922838684e-04 5.228019319699e-03 0.000000000000e+00 3.677536763473e+07 7.931483046400e+07  5.700093771344e-03
2.400000000000e+01 1.638347148715e+06 1.000000000000e+00 6.615150684740e+01 0.000000000000e+00 8.977667954456e-03 -8.519226957239e+07 1.376301484428e+06 5.435107261781e+06 -3.139998710978e+07 -7.255522351789e-04 4.871809011017e-04 4.903440173007e-03 0.000000000000e+00 3.705238314013e+07 7.897822641842e+07  5.370278321001e-03
2.500000000000e+01 1.674562792262e+06 1.000000000000e+00 6.632582085823e+01 0.000000000000e+00 9.155264736368e-03 -8.527989627193e+07 1.374651799620e+06 4.960450484978e+06 -3.162186586371e+07 -7.237928420897e-04 4.510029974876e-04 4.593057223895e-03 0.000000000000e+00 3.731377055022e+07 7.865147260208e+07  5.055164071860e-03
2.600000000000e+01 1.710208968537e+06 1.000000000000e+00 6.647968162084e+01 0.000000000000e+00 9.324903758203e-03 -8.535623852194e+07 1.373114926247e+06 4.505318441812e+06 -3.182920069055e+07 -7.218454794287e-04 4.164449301040e-04 4.295518839451e-03 0.000000000000e+00 3.756004025689e+07 7.833183627088e+07  4.753264456322e-03
2.700000000000e+01 1.745317733289e+06 1.000000000000e+00 6.661376379071e+01 0.000000000000e+00 9.486937457036e-03 -8.542090062679e+07 1.371539316284e+06 4.066558295760e+06 -3.202305908582e+07 -7.198225868216e-04 3.831063625118e-04 4.008532997504e-03 0.000000000000e+00 3.779246713895e+07 7.801628672583e+07  4.462311664954e-03
2.800000000000e+01 1.779931743228e+06 1.000000000000e+00 6.672874682124e+01 0.000000000000e+00 9.641745756010e-03 -8.547315134054e+07 1.369832466041e+06 3.640392056579e+06 -3.220461872400e+07 -7.176979741138e-04 3.506536043805e-04 3.729409670824e-03 0.000000000000e+00 3.801245933599e+07 7.770097691689e+07  4.179599321834e-03
2.900000000000e+01 1.814074673663e+06 1.000000000000e+00 6.682528928460e+01 0.000000000000e+00 9.789569768942e-03 -8.551312002951e+07 1.368076836930e+06 3.227319215485e+06 -3.237390214939e+07 -7.153647511341e-04 3.192303589875e-04 3.458589357594e-03 0.000000000000e+00 3.821990098781e+07 7.738642905047e+07  3.905568339307e-03
3.000000000000e+01 1.847757569539e+06 1.000000000000e+00 6.690401596399e+01 0.000000000000e+00 9.930708623905e-03 -8.554110885590e+07 1.366212551251e+06 2.824840131825e+06 -3.253196628119e+07 -7.128711085928e-04 2.885821972112e-04 3.194329258731e-03 0.000000000000e+00 3.841607833509e+07 7.707078926917e+07  3.638531121782e-03
3.100000000000e+01 1.880900859172e+06 1.000000000000e+00 6.700386115227e+01 0.000000000000e+00 1.006700376743e-02 -8.557106275123e+07 1.364448126620e+06 2.430034004270e+06 -3.269302458642e+07 -7.101861508286e-04 2.585540071346e-04 2.935387460653e-03 0.000000000000e+00 3.861135111113e+07 7.676288005031e+07  3.377289735672e-03
3.200000000000e+01 1.913587145479e+06 1.000000000000e+00 6.709790726114e+01 0.000000000000e+00 1.019876168650e-02 -8.559267995122e+07 1.362509801805e+06 2.037858199476e+06 -3.284937631330e+07 -7.072827944181e-04 2.286699262291e-04 2.677623435540e-03 0.000000000000e+00 3.880139935502e+07 7.645006548373e+07  3.117791366529e-03
3.300000000000e+01 1.945842752831e+06 1.000000000000e+00 6.718175748251e+01 0.000000000000e+00 1.032605219748e-02 -8.560448061827e+07 1.360377437565e+06 1.647978329736e+06 -3.299965755986e+07 -7.041781342678e-04 1.988808776108e-04 2.420747819103e-03 0.000000000000e+00 3.898538661613e+07 7.613087886940e+07  2.859927506371e-03
3.400000000000e+01 1.977689979325e+06 1.000000000000e+00 6.725433582523e+01 0.000000000000e+00 1.044887175500e-02 -8.560654591724e+07 1.358078813478e+06 1.261388718180e+06 -3.314330980717e+07 -7.009085998018e-04 1.692684282140e-04 2.165604576630e-03 0.000000000000e+00 3.916282233541e+07 7.580626214228e+07  2.604796023011e-03
3.500000000000e+01 2.009169432473e+06 1.000000000000e+00 6.731538543564e+01 0.000000000000e+00 1.056762950033e-02 -8.559530313622e+07 1.355627161757e+06 8.707001818444e+05 -3.328160298814e+07 -6.970630261261e-04 1.394518255956e-04 1.907043191383e-03 0.000000000000e+00 3.933540198084e+07 7.546687722043e+07  2.347419930289e-03
3.600000000000e+01 2.040327042026e+06 1.000000000000e+00 6.736492938355e+01 0.000000000000e+00 1.068283635263e-02 -8.556578954255e+07 1.352705755532e+06 4.634430291872e+05 -3.341713020468e+07 -6.925784234785e-04 1.082495651521e-04 1.636414144083e-03 0.000000000000e+00 3.950649223935e+07 7.509788161939e+07  2.079907487548e-03
3.700000000000e+01 2.071249916044e+06 1.000000000000e+00 6.740310965220e+01 0.000000000000e+00 1.079601658545e-02 -8.550192375785e+07 1.348798515203e+06 5.222430534349e+03 -3.355630674551e+07 -6.863841330076e-04 7.317590970310e-05 1.329952696740e-03 0.000000000000e+00 3.968433602427e+07 7.465624877167e+07  1.780117952155e-03
3.800000000000e+01 2.104330716608e+06 1.000000000000e+00 6.743049022823e+01 0.000000000000e+00 1.095577791528e-02 -8.487044623500e+07 1.324982836615e+06 -1.681697828347e+06 -3.392316985028e+07 -6.483102830547e-04 -5.646767116166e-05 1.760781133387e-04 0.000000000000e+00 4.015843797121e+07 7.268438218672e+07  7.583065147214e-04
3.900000000000e+01 2.134028859186e+06 1.000000000000e+00 6.744627004505e+01 0.000000000000e+00 1.104191504738e-02 -8.499655754065e+07 1.327199520189e+06 -1.678510653497e+06 -3.396389869229e+07 -6.530964843150e-04 -5.603129958595e-05 1.812507331764e-04 0.000000000000e+00 4.021298896215e+07 7.279816013622e+07  7.662764398822e-04
4.000000000000e+01 2.163414648802e+06 1.000000000000e+00 6.745111125647e+01 0.000000000000e+00 1.112418420022e-02 -8.511236137080e+07 1.329249753148e+06 -1.675273817727e+06 -3.399895398806e+07 -6.576216771160e-04 -5.560975276206e-05 1.860921099754e-04 0.000000000000e+00 4.026219639220e+07 7.290318828009e+07  7.737907229186e-04
4.200000000000e+01 2.220697509681e+06 1.000000000000e+00 6.749234591303e+01 0.000000000000e+00 1.127833935781e-02 -8.533585502950e+07 1.333189108314e+06 -1.669628099014e+06 -3.407421358064e+07 -6.659335554054e-04 -5.483602397899e-05 1.954288627162e-04 0.000000000000e+00 4.035989890305e+07 7.310442849870e+07  7.879235664405e-04
4.400000000000e+01 2.276463149110e+06 1.000000000000e+00 6.751263403620e+01 0.000000000000e+00 1.142211456550e-02 -8.553478586307e+07 1.336724841780e+06 -1.663987032483e+06 -3.413719111424e+07 -6.735543127243e-04 -5.410566851530e-05 2.039576146914e-04 0.000000000000e+00 4.044532133660e+07 7.328456053493e+07  8.008950754405e-04
5.000000000000e+01 2.427985018064e+06 1.000000000000e+00 6.726430618241e+01 0.000000000000e+00 1.172306703653e-02 -8.584029732585e+07 1.342519382779e+06 -1.647497253231e+06 -3.416637293626e+07 -6.890055827791e-04 -5.245920573789e-05 2.189057634552e-04 0.000000000000e+00 4.055138917178e+07 7.357619680079e+07  8.256704089997e-04
6.500000000000e+01 2.759369379565e+06 1.000000000000e+00 6.641310122364e+01 0.000000000000e+00 1.223611922102e-02 -8.605147059154e+07 1.347939702786e+06 -1.610000125382e+06 -3.402006763304e+07 -7.089336488605e-04 -4.955882255797e-05 2.387119067566e-04 0.000000000000e+00 4.056051278332e+07 7.382053560095e+07  8.580031623937e-04
8.000000000000e+01 3.014422729007e+06 1.000000000000e+00 6.535873508671e+01 0.000000000000e+00 1.248122822348e-02 -8.583531000162e+07 1.345956952058e+06 -1.580341752312e+06 -3.369997134623e+07 -7.146268557977e-04 -4.794027755026e-05 2.411163485100e-04 0.000000000000e+00 4.037187436672e+07 7.368695073537e+07  8.648882385592e-04
1.000000000000e+02 3.315102353166e+06 1.000000000000e+00 6.420626936940e+01 0.000000000000e+00 1.268756742294e-02 -8.547524022787e+07 1.341713362306e+06 -1.549856121981e+06 -3.331333848629e+07 -7.159743973958e-04 -4.651635457484e-05 2.397121409633e-04 0.000000000000e+00 4.011281161205e+07 7.343042309222e+07  8.649857326308e-04
1.860000000000e+02 3.913583542837e+06 1.000000000000e+00 6.147315581471e+01 0.000000000000e+00 1.294102632821e-02 -8.423586578127e+07 1.325112965180e+06 -1.484531949673e+06 -3.228229003812e+07 -7.039721173167e-04 -4.428050239724e-05 2.231533151571e-04 0.000000000000e+00 3.933422925635e+07 7.247756457314e+07  8.416353987684e-04
2.720000000000e+02 4.203904885271e+06 1.000000000000e+00 5.942490091537e+01 0.000000000000e+00 1.276069161897e-02 -8.296787197165e+07 1.305948588122e+06 -1.455011971202e+06 -3.141339720982e+07 -6.813515096403e-04 -4.452348028079e-05 1.897451265081e-04 0.000000000000e+00 3.861209371756e+07 7.144910100839e+07  7.971657556649e-04
3.580000000000e+02 4.345270570126e+06 1.000000000000e+00 5.799370785224e+01 0.000000000000e+00 1.257044503839e-02 -8.199805490940e+07 1.291050815754e+06 -1.437084107405e+06 -3.078182527574e+07 -6.622184367120e-04 -4.502285956678e-05 1.626937579980e-04 0.000000000000e+00 3.807232143085e+07 7.065510208732e+07  7.608038489307e-04
4.440000000000e+02 4.417399455284e+06 1.000000000000e+00 5.690565231274e+01 0.000000000000e+00 1.239141712183e-02 -8.122916886072e+07 1.279098897155e+06 -1.425273500714e+06 -3.029272017548e+07 -6.464035296023e-04 -4.558179674160e-05 1.401667329149e-04 0.000000000000e+00 3.764905417897e+07 7.002260192519e+07  7.309730552968e-04
5.300000000000e+02 4.456363967567e+06 1.000000000000e+00 5.606982792303e+01 0.000000000000e+00 1.223582288787e-02 -8.062194703561e+07 1.269588477217e+06 -1.417185659889e+06 -2.991230786633e+07 -6.335885705401e-04 -4.610754860374e-05 1.218126305599e-04 0.000000000000e+00 3.731714685394e+07 6.952159681794e+07  7.069862815274e-04
6.160000000000e+02 4.478879443004e+06 1.000000000000e+00 5.543363405027e+01 0.000000000000e+00 1.210662995725e-02 -8.014994395977e+07 1.262154250127e+06 -1.411557182907e+06 -2.961995994270e+07 -6.234402705523e-04 -4.656057575951e-05 1.072565693590e-04 0.000000000000e+00 3.706048702846e+07 6.913134246980e+07  6.881522134541e-04
7.020000000000e+02 4.492689738173e+06 1.000000000000e+00 5.496621848264e+01 0.000000000000e+00 1.200742908539e-02 -7.979925971569e+07 1.256614018728e+06 -1.407676372933e+06 -2.940407372155e+07 -6.158272089250e-04 -4.691773097126e-05 9.629992334951e-05 0.000000000000e+00 3.687033660339e+07 6.884107729990e+07  6.741103470086e-04
7.880000000000e+02 4.502308299529e+06 1.000000000000e+00 5.460070648349e+01 0.000000000000e+00 1.191772635966e-02 -7.951632633678e+07 1.252093971095e+06 -1.405354775767e+06 -2.923285345727e+07 -6.095202402848e-04 -4.726098726463e-05 8.704246481914e-05 0.000000000000e+00 3.671817818994e+07 6.860585850266e+07  6.624547236015e-04
8.740000000000e+02 4.510694377837e+06 1.000000000000e+00 5.401046656553e+01 0.000000000000e+00 1.179148949466e-02 -7.907357482817e+07 1.245100806082e+06 -1.400435236385e+06 -2.896025761849e+07 -5.999103061936e-04 -4.771057731184e-05 7.322207310957e-05 0.000000000000e+00 3.647808922768e+07 6.823967556209e+07  6.449879233981e-04
9.370000000000e+02 4.516068229386e+06 1.000000000000e+00 5.360249614083e+01 0.000000000000e+00 1.168753092441e-02 -7.874898384263e+07 1.239919592116e+06 -1.397819148733e+06 -2.876648606973e+07 -5.925275775755e-04 -4.810714124578e-05 6.271685387844e-05 0.000000000000e+00 3.630442968703e+07 6.796955603696e+07  6.317647430541e-04
1.000000000000e+03 4.520258254381e+06 1.000000000000e+00 5.327987619110e+01 0.000000000000e+00 1.160063017088e-02 -7.848227603773e+07 1.235660546963e+06 -1.395817764154e+06 -2.861024842263e+07 -5.862962347934e-04 -4.844249433402e-05 5.414515172230e-05 0.000000000000e+00 3.616278074151e+07 6.774705737371e+07  6.208543281213e-04
1.100000000000e+03 4.524403564311e+06 1.000000000000e+00 5.295551081915e+01 0.000000000000e+00 1.150977011973e-02 -7.820768180411e+07 1.231271343684e+06 -1.393900673066e+06 -2.845125068462e+07 -5.797776415557e-04 -4.879731683971e-05 4.532146628295e-05 0.000000000000e+00 3.601761105393e+07 6.751761167938e+07  6.096031956769e-04
1.200000000000e+03 4.527664936884e+06 1.000000000000e+00 5.267671850783e+01 0.000000000000e+00 1.143423095382e-02 -7.797661491552e+07 1.227581250896e+06 -1.392188971559e+06 -2.831606517959e+07 -5.743694917085e-04 -4.908937382130e-05 3.788949654057e-05 0.000000000000e+00 3.589495635556e+07 6.732488894039e+07  6.002731025868e-04
1.300000000000e+03 4.530570310175e+06 1.000000000000e+00 5.240902838015e+01 0.000000000000e+00 1.136232389580e-02 -7.775619876680e+07 1.224061013043e+06 -1.390538426810e+06 -2.818669834786e+07 -5.692335466283e-04 -4.936694329309e-05 3.078994132585e-05 0.000000000000e+00 3.577781184716e+07 6.714117063934e+07  5.914497475403e-04
1.400000000000e+03 4.533309823868e+06 1.000000000000e+00 5.213503379965e+01 0.000000000000e+00 1.128802901004e-02 -7.752980614928e+07 1.220444243972e+06 -1.388846672457e+06 -2.805404673430e+07 -5.639456377474e-04 -4.965201516805e-05 2.350636085525e-05 0.000000000000e+00 3.565756651868e+07 6.695246925616e+07  5.824427086241e-04
1.500000000000e+03 4.535949710671e+06 1.000000000000e+00 5.184466545745e+01 0.000000000000e+00 1.120783875116e-02 -7.728782771680e+07 1.216575659989e+06 -1.387119039468e+06 -2.791286790875e+07 -5.582603570776e-04 -4.996227582122e-05 1.569830504962e-05 0.000000000000e+00 3.552927155500e+07 6.675065514608e+07  5.728468307184e-04
1.600000000000e+03 4.538510754033e+06 1.000000000000e+00 5.153178191726e+01 0.000000000000e+00 1.111960044914e-02 -7.702440996527e+07 1.212361056560e+06 -1.385315490222e+06 -2.775995258845e+07 -5.520285471578e-04 -5.030518544483e-05 7.186195585231e-06 0.000000000000e+00 3.538989268131e+07 6.653081906789e+07  5.624464227290e-04
1.700000000000e+03 4.540998041300e+06 1.000000000000e+00 5.119259228411e+01 0.000000000000e+00 1.102198169974e-02 -7.673592994469e+07 1.207741990040e+06 -1.383415760429e+06 -2.759331830245e+07 -5.451577273987e-04 -5.068571247284e-05 -2.143886747427e-06 0.000000000000e+00 3.523755466919e+07 6.628992573710e+07  5.511260399514e-04
1.800000000000e+03 4.543411448242e+06 1.000000000000e+00 5.082480855699e+01 0.000000000000e+00 1.091417909272e-02 -7.642020990417e+07 1.202683837936e+06 -1.381431051301e+06 -2.741177880197e+07 -5.375922929921e-04 -5.110853673536e-05 -1.237559752387e-05 0.000000000000e+00 3.507113991915e+07 6.602614007094e+07  5.388337875730e-04
1.900000000000e+03 4.545750738841e+06 1.000000000000e+00 5.042714412880e+01 0.000000000000e+00 1.079573843457e-02 -7.607601649433e+07 1.197165761541e+06 -1.379327121191e+06 -2.721465124425e+07 -5.293008580403e-04 -5.157339963294e-05 -2.353015605341e-05 0.000000000000e+00 3.488999828659e+07 6.573846524341e+07  5.255834676113e-04
2.000000000000e+03 4.548015082330e+06 1.000000000000e+00 4.999899690013e+01 0.000000000000e+00 1.066645122745e-02 -7.570278137555e+07 1.191179275398e+06 -1.377124622290e+06 -2.700163063387e+07 -5.202688827446e-04 -5.208280038316e-05 -3.564084108399e-05 0.000000000000e+00 3.469384554390e+07 6.542642467727e+07  5.114147178386e-04