 TITLE = "Time curves in points"
 VARIABLES = "TIME"  "PRESSURE1"  "SATURATION1"  "TEMPERATURE1"  "DISPLACEMENT_X1"  "DISPLACEMENT_Y1"  "STRESS_XX"  "STRESS_XY"  "STRESS_YY"  "STRESS_ZZ"  "STRAIN_XX"  "STRAIN_XY"  "STRAIN_YY"  "STRAIN_PLS"  p_(1st_Invariant)  q_(2nd_Invariant)   Effective_Strain
 ZONE T="POINT=POINT10"
0.000000000000e+00 1.000000000000e+05 1.000000000000e+00 2.500000000000e+01 0.000000000000e+00 0.000000000000e+00 -2.267317646564e+07 -1.666418290369e+05 9.964110232944e+06 -8.200109780691e+05 0.000000000000e+00 0.000000000000e+00 0.000000000000e+00 0.000000000000e+00 4.509692403587e+06 2.880292704016e+07  0.000000000000e+00
1.000000000000e-03 1.740556493452e+05 1.000000000000e+00 2.500000447452e+01 0.000000000000e+00 6.302504296610e-05 -2.272904392662e+07 -1.666172852749e+05 9.911412184098e+06 -8.525813187812e+05 -8.653216101185e-07 1.823250894885e-09 -7.476005878421e-07 0.000000000000e+00 4.556737687102e+06 2.880979968168e+07  8.128856968937e-07
2.000000000000e-03 1.919940503962e+05 1.000000000000e+00 2.500004424458e+01 0.000000000000e+00 6.293592193696e-05 -2.271889230431e+07 -1.666833622038e+05 9.914533967538e+06 -8.486072161101e+05 -6.358708806417e-07 -3.085320967894e-09 -7.792581592934e-07 0.000000000000e+00 4.550988517628e+06 2.880331394369e+07  7.183982470000e-07
3.000000000000e-03 2.044247639721e+05 1.000000000000e+00 2.500022317481e+01 0.000000000000e+00 6.297220746216e-05 -2.270986781503e+07 -1.667833743036e+05 9.914240041984e+06 -8.460290858038e+05 -3.964346902284e-07 -1.051479124011e-08 -8.859345198120e-07 0.000000000000e+00 4.547218952951e+06 2.879505295454e+07  7.688673114336e-07
4.000000000000e-03 2.130107233903e+05 1.000000000000e+00 2.500077028311e+01 0.000000000000e+00 6.301289670236e-05 -2.270130214333e+07 -1.669319820967e+05 9.910664126245e+06 -8.446694377726e+05 -1.287823824797e-07 -2.155422729642e-08 -1.069255459863e-06 0.000000000000e+00 4.545102484953e+06 2.878451958073e+07  1.011723593194e-06
1.000000000000e-02 2.252844771433e+05 1.000000000000e+00 2.508185242243e+01 0.000000000000e+00 6.668026740787e-05 -2.265690617102e+07 -1.690012786471e+05 9.825174034027e+06 -8.824637079429e+05 2.923998052543e-06 -1.752733996136e-07 -2.840814564485e-06 0.000000000000e+00 4.571398614978e+06 2.867086285440e+07  5.001868705703e-06
2.000000000000e-02 2.219294927555e+05 1.000000000000e+00 2.544179078192e+01 0.000000000000e+00 8.011560866375e-05 -2.264481751623e+07 -1.724256968548e+05 9.624959776130e+06 -1.056302779804e+06 9.829885042238e-06 -4.296587521872e-07 -3.820464331531e-06 0.000000000000e+00 4.692053506636e+06 2.847516679967e+07  1.222011181492e-05
3.000000000000e-02 2.111384217562e+05 1.000000000000e+00 2.593979075627e+01 0.000000000000e+00 9.687563707914e-05 -2.269072830100e+07 -1.750208910366e+05 9.414791589446e+06 -1.298294987258e+06 1.711290931361e-05 -6.224446056899e-07 -2.638429274348e-06 0.000000000000e+00 4.858077232937e+06 2.831390672790e+07  1.860447491803e-05
4.000000000000e-02 1.974241964817e+05 1.000000000000e+00 2.649896841115e+01 0.000000000000e+00 1.157988460796e-04 -2.277334591970e+07 -1.768859554511e+05 9.213704175537e+06 -1.570860724478e+06 2.416812514425e-05 -7.609922479141e-07 1.647987718010e-08 0.000000000000e+00 5.043500822881e+06 2.818875063016e+07  2.419581749900e-05
5.000000000000e-02 1.829113713786e+05 1.000000000000e+00 2.707130627529e+01 0.000000000000e+00 1.347844256824e-04 -2.287693717868e+07 -1.782183478426e+05 9.026517311368e+06 -1.851416008716e+06 3.074107465398e-05 -8.599699684218e-07 3.484449765457e-06 0.000000000000e+00 5.233945292008e+06 2.809290793830e+07  2.919345775549e-05
6.000000000000e-02 1.682270725788e+05 1.000000000000e+00 2.763110811857e+01 0.000000000000e+00 1.552845823384e-04 -2.298815860176e+07 -1.792104518361e+05 8.857552333707e+06 -2.125621634591e+06 3.679477361476e-05 -9.336691222266e-07 7.393388127684e-06 0.000000000000e+00 5.418742634215e+06 2.801979266899e+07  3.375047740482e-05
7.000000000000e-02 1.542556228615e+05 1.000000000000e+00 2.816623668210e+01 0.000000000000e+00 1.746010816566e-04 -2.310298035840e+07 -1.799485353483e+05 8.702453706654e+06 -2.389146521785e+06 4.231803274967e-05 -9.884981831312e-07 1.142064921864e-05 0.000000000000e+00 5.596557724510e+06 2.796306879401e+07  3.795891334976e-05
8.000000000000e-02 1.416079441769e+05 1.000000000000e+00 2.867201626895e+01 0.000000000000e+00 1.938033906430e-04 -2.321602422984e+07 -1.805287872796e+05 8.560758345296e+06 -2.638684000814e+06 4.738779531709e-05 -1.031602612316e-06 1.542621358931e-05 0.000000000000e+00 5.764649961787e+06 2.791786072079e+07  4.190166548574e-05
9.000000000000e-02 1.312089199408e+05 1.000000000000e+00 2.914763495597e+01 0.000000000000e+00 2.113575418709e-04 -2.332679119374e+07 -1.809855724183e+05 8.428561043791e+06 -2.874800824364e+06 5.204364724701e-05 -1.065535222614e-06 1.928608155100e-05 0.000000000000e+00 5.924343658105e+06 2.788053828378e+07  4.560901480275e-05
1.000000000000e-01 1.240701125961e+05 1.000000000000e+00 2.959416633005e+01 0.000000000000e+00 2.273026787378e-04 -2.343466605187e+07 -1.813455304282e+05 8.304959160491e+06 -3.097820647529e+06 5.632046023416e-05 -1.092274960499e-06 2.297874788880e-05 0.000000000000e+00 6.075842512969e+06 2.784970192102e+07  4.908586998914e-05
2.000000000000e-01 1.432624336946e+05 1.000000000000e+00 3.250759920630e+01 0.000000000000e+00 3.967230889270e-04 -2.415336983605e+07 -1.833294595661e+05 7.588677624155e+06 -4.537154285693e+06 8.308671195371e-05 -1.239652553595e-06 4.983496881385e-05 0.000000000000e+00 7.033948832528e+06 2.774518829576e+07  7.246317917577e-05
3.000000000000e-01 1.717948314734e+05 1.000000000000e+00 3.457268545528e+01 0.000000000000e+00 5.673166121608e-04 -2.463629679101e+07 -1.853097716267e+05 7.098309235821e+06 -5.546800174241e+06 1.026505580583e-04 -1.386761449530e-06 6.912241882180e-05 0.000000000000e+00 7.694929243143e+06 2.767308196624e+07  9.069377216222e-05
4.000000000000e-01 2.008799525264e+05 1.000000000000e+00 3.613564746535e+01 0.000000000000e+00 7.230483918118e-04 -2.499625641544e+07 -1.872024519773e+05 6.719223002767e+06 -6.312797991306e+06 1.177319766418e-04 -1.527360561290e-06 8.349342051366e-05 0.000000000000e+00 8.196610467993e+06 2.761328568960e+07  1.049243663324e-04
5.000000000000e-01 2.285057154167e+05 1.000000000000e+00 3.737741631547e+01 0.000000000000e+00 8.692782626217e-04 -2.527347491610e+07 -1.891310090416e+05 6.406992950987e+06 -6.922619660100e+06 1.300858086011e-04 -1.670624800351e-06 9.454682343131e-05 0.000000000000e+00 8.596367208404e+06 2.755266891335e+07  1.164928856424e-04
6.000000000000e-01 2.541974450547e+05 1.000000000000e+00 3.839981986304e+01 0.000000000000e+00 1.008427167795e-03 -2.549568294818e+07 -1.911020456311e+05 6.139403758656e+06 -7.426362764786e+06 1.405428255835e-04 -1.817044661280e-06 1.033182544616e-04 0.000000000000e+00 8.927547318104e+06 2.749116389096e+07  1.261594747354e-04
7.000000000000e-01 2.780400045055e+05 1.000000000000e+00 3.926450008438e+01 0.000000000000e+00 1.141587666986e-03 -2.568205072170e+07 -1.930486580911e+05 5.906962495847e+06 -7.853952793119e+06 1.495025093338e-04 -1.961650158314e-06 1.105666371811e-04 0.000000000000e+00 9.209680339657e+06 2.743440566247e+07  1.343783318154e-04
8.000000000000e-01 3.003027005535e+05 1.000000000000e+00 4.001102928040e+01 0.000000000000e+00 1.269425915492e-03 -2.584612227989e+07 -1.949074988274e+05 5.704813765711e+06 -8.224631097336e+06 1.571764741861e-04 -2.099735470149e-06 1.168263070755e-04 0.000000000000e+00 9.455313203840e+06 2.738828111293e+07  1.414344713685e-04
9.000000000000e-01 3.210277039390e+05 1.000000000000e+00 4.066608925883e+01 0.000000000000e+00 1.392763627751e-03 -2.599079417478e+07 -1.967287160523e+05 5.523268207167e+06 -8.551440569025e+06 1.639415841815e-04 -2.235025892570e-06 1.222218238495e-04 0.000000000000e+00 9.672988845547e+06 2.734590300448e+07  1.476237238652e-04
1.000000000000e+00 3.403771986573e+05 1.000000000000e+00 4.124850062972e+01 0.000000000000e+00 1.512058614520e-03 -2.612130621758e+07 -1.985219293981e+05 5.357626896928e+06 -8.843906526315e+06 1.699570152911e-04 -2.368236026829e-06 1.269324535971e-04 0.000000000000e+00 9.869195282323e+06 2.730706673583e+07  1.531045377889e-04
2.000000000000e+00 4.704530123069e+05 1.000000000000e+00 4.452435316778e+01 0.000000000000e+00 2.470788438451e-03 -2.696635153280e+07 -2.138659812600e+05 4.293137462476e+06 -1.056370813567e+07 2.024479633591e-04 -3.508079879428e-06 1.512726200934e-04 0.000000000000e+00 1.107897406866e+07 2.708507574047e+07  1.824299029260e-04
3.000000000000e+00 5.717561879422e+05 1.000000000000e+00 4.671041876856e+01 0.000000000000e+00 3.278307778897e-03 -2.758871122723e+07 -2.273861825984e+05 3.490174872254e+06 -1.175769309318e+07 2.236797588448e-04 -4.512437693142e-06 1.657963080213e-04 0.000000000000e+00 1.195207648272e+07 2.691956538183e+07  2.012383123478e-04
4.000000000000e+00 6.567912669109e+05 1.000000000000e+00 4.835209967221e+01 0.000000000000e+00 3.977023328882e-03 -2.808815965400e+07 -2.392546290604e+05 2.839158853840e+06 -1.267895229438e+07 2.393470161806e-04 -5.394093716031e-06 1.758339119533e-04 0.000000000000e+00 1.264265103151e+07 2.678710447035e+07  2.149570313319e-04
5.000000000000e+00 7.317200884834e+05 1.000000000000e+00 4.969152725563e+01 0.000000000000e+00 4.593802987379e-03 -2.851239169193e+07 -2.496917433543e+05 2.288512887009e+06 -1.344173256231e+07 2.519216647236e-04 -6.169422206433e-06 1.837131859941e-04 0.000000000000e+00 1.322187045574e+07 2.667990992468e+07  2.259378532451e-04
6.000000000000e+00 7.997471659688e+05 1.000000000000e+00 5.085993147088e+01 0.000000000000e+00 5.148859922298e-03 -2.888316761992e+07 -2.590845991809e+05 1.797754410760e+06 -1.411045665450e+07 2.629883108227e-04 -6.867177210694e-06 1.903233374435e-04 0.000000000000e+00 1.373195662122e+07 2.658031126788e+07  2.355302225812e-04
7.000000000000e+00 8.629641263324e+05 1.000000000000e+00 5.185897481082e+01 0.000000000000e+00 5.650201740359e-03 -2.920730667365e+07 -2.674616860721e+05 1.370605387558e+06 -1.468694323032e+07 2.723612187860e-04 -7.489475094040e-06 1.958701608265e-04 0.000000000000e+00 1.417454817214e+07 2.649645016494e+07  2.436526100534e-04
8.000000000000e+00 9.220342046367e+05 1.000000000000e+00 5.279544710174e+01 0.000000000000e+00 6.111652944361e-03 -2.951127308954e+07 -2.750712871225e+05 9.782523899545e+05 -1.522469313059e+07 2.810446053486e-04 -8.054759743498e-06 2.012706172110e-04 0.000000000000e+00 1.458590461006e+07 2.642637848541e+07  2.512459906730e-04
9.000000000000e+00 9.779873130336e+05 1.000000000000e+00 5.365098589801e+01 0.000000000000e+00 6.538666050857e-03 -2.978817712234e+07 -2.820511942070e+05 6.193488785016e+05 -1.571592383928e+07 2.890053104530e-04 -8.573267126918e-06 2.061856273942e-04 0.000000000000e+00 1.496158402771e+07 2.636251507326e+07  2.582021376473e-04
1.000000000000e+01 1.031317419010e+06 1.000000000000e+00 5.443079723345e+01 0.000000000000e+00 6.935567473218e-03 -3.003917794899e+07 -2.885076239442e+05 2.897093784202e+05 -1.616408358577e+07 2.963283560471e-04 -9.052887621685e-06 2.105878079751e-04 0.000000000000e+00 1.530451738545e+07 2.630196164652e+07  2.645759717877e-04
1.100000000000e+01 1.082320970988e+06 1.000000000000e+00 5.515968595864e+01 0.000000000000e+00 7.306935442104e-03 -3.027538400758e+07 -2.944842353669e+05 -1.504573265241e+04 -1.658241443605e+07 3.030929911671e-04 -9.496864470227e-06 2.148063354314e-04 0.000000000000e+00 1.562428139209e+07 2.625055732497e+07  2.705021249692e-04
1.200000000000e+01 1.131384670317e+06 1.000000000000e+00 5.583133115128e+01 0.000000000000e+00 7.655070540120e-03 -3.049492443633e+07 -3.000110203652e+05 -2.939352779001e+05 -1.696794734636e+07 3.092584261965e-04 -9.907425641527e-06 2.187673747050e-04 0.000000000000e+00 1.591893568686e+07 2.620726591494e+07  2.759325201077e-04
1.300000000000e+01 1.178764923901e+06 1.000000000000e+00 5.644833607324e+01 0.000000000000e+00 7.982235592788e-03 -3.069666660164e+07 -3.051864148290e+05 -5.520347340409e+05 -1.732278361497e+07 3.149447786048e-04 -1.029188351598e-05 2.223604563110e-04 0.000000000000e+00 1.619049498355e+07 2.616654760460e+07  2.809286208574e-04
1.400000000000e+01 1.225175125999e+06 1.000000000000e+00 5.701464568575e+01 0.000000000000e+00 8.290346849866e-03 -3.088198865283e+07 -3.100385467530e+05 -7.902308093191e+05 -1.764898386693e+07 3.201773974908e-04 -1.065232760176e-05 2.256291828738e-04 0.000000000000e+00 1.644040110969e+07 2.612872560838e+07  2.855190811623e-04
1.500000000000e+01 1.270162624619e+06 1.000000000000e+00 5.753406333436e+01 0.000000000000e+00 8.580496607769e-03 -3.105330253829e+07 -3.145675314958e+05 -1.008880022273e+06 -1.794870954436e+07 3.249469783350e-04 -1.098876646837e-05 2.286405944113e-04 0.000000000000e+00 1.667029736831e+07 2.609549024723e+07  2.897123553261e-04
1.600000000000e+01 1.313869667188e+06 1.000000000000e+00 5.801007034821e+01 0.000000000000e+00 8.854157854340e-03 -3.120994538284e+07 -3.188340117437e+05 -1.211635283920e+06 -1.822407545605e+07 3.293566922575e-04 -1.130570500107e-05 2.313375614128e-04 0.000000000000e+00 1.688188537427e+07 2.606304354751e+07  2.935707426330e-04
1.700000000000e+01 1.356427998351e+06 1.000000000000e+00 5.844572204304e+01 0.000000000000e+00 9.112608817202e-03 -3.135106577928e+07 -3.228855017482e+05 -1.401357680030e+06 -1.847675346549e+07 3.335002607402e-04 -1.160667282998e-05 2.336759127651e-04 0.000000000000e+00 1.707639230827e+07 2.602813481885e+07  2.971531976053e-04
1.800000000000e+01 1.397969984871e+06 1.000000000000e+00 5.884370166558e+01 0.000000000000e+00 9.356886757807e-03 -3.147714256730e+07 -3.267482264666e+05 -1.579601699264e+06 -1.870829237773e+07 3.374174253545e-04 -1.189361809478e-05 2.356554373626e-04 0.000000000000e+00 1.725501221476e+07 2.598979718946e+07  3.004898128055e-04
1.900000000000e+01 1.438583998883e+06 1.000000000000e+00 5.920638226482e+01 0.000000000000e+00 9.587858026780e-03 -3.158891407188e+07 -3.304355448977e+05 -1.747114446631e+06 -1.891996801694e+07 3.411281503548e-04 -1.216753317823e-05 2.372957733454e-04 0.000000000000e+00 1.741866551182e+07 2.594799823358e+07  3.036010167221e-04
2.000000000000e+01 1.478353757371e+06 1.000000000000e+00 5.953584652466e+01 0.000000000000e+00 9.805884612080e-03 -3.169146699673e+07 -3.338794977721e+05 -1.899546984012e+06 -1.911273052847e+07 3.444787921458e-04 -1.242336967747e-05 2.387937438137e-04 0.000000000000e+00 1.756791483640e+07 2.591086306968e+07  3.064175749273e-04
2.100000000000e+01 1.517204192537e+06 1.000000000000e+00 5.986576413745e+01 0.000000000000e+00 1.001450479906e-02 -3.179201092677e+07 -3.371800308409e+05 -2.048301471187e+06 -1.930378008834e+07 3.478404298253e-04 -1.266855213401e-05 2.403647036567e-04 0.000000000000e+00 1.771469749543e+07 2.587545020089e+07  3.092589047865e-04
2.200000000000e+01 1.555286536014e+06 1.000000000000e+00 6.017842232777e+01 0.000000000000e+00 1.021398047433e-02 -3.188476767696e+07 -3.403546971847e+05 -2.190883160635e+06 -1.948458577872e+07 3.511108190322e-04 -1.290438449098e-05 2.417844522627e-04 0.000000000000e+00 1.785341220544e+07 2.583852247073e+07  3.120015399826e-04
2.300000000000e+01 1.592669794476e+06 1.000000000000e+00 6.047016849764e+01 0.000000000000e+00 1.040420126613e-02 -3.197312822336e+07 -3.433371632894e+05 -2.322021929879e+06 -1.965331888679e+07 3.540960856083e-04 -1.312593911590e-05 2.431808134190e-04 0.000000000000e+00 1.798282301334e+07 2.580743054986e+07  3.145289216663e-04
2.400000000000e+01 1.629401302440e+06 1.000000000000e+00 6.074054184199e+01 0.000000000000e+00 1.058571214998e-02 -3.205464607711e+07 -3.461805221803e+05 -2.444745637256e+06 -1.980999428221e+07 3.568876514418e-04 -1.333716006208e-05 2.444418761177e-04 0.000000000000e+00 1.810312866552e+07 2.577739909166e+07  3.168848039674e-04
2.500000000000e+01 1.665534658888e+06 1.000000000000e+00 6.098989539144e+01 0.000000000000e+00 1.075888560443e-02 -3.212875271894e+07 -3.489004228318e+05 -2.559917011304e+06 -1.995482425452e+07 3.595145180028e-04 -1.353920982477e-05 2.455434811961e-04 0.000000000000e+00 1.821449799492e+07 2.574717233399e+07  3.190858413183e-04
2.600000000000e+01 1.701103973755e+06 1.000000000000e+00 6.121883417622e+01 0.000000000000e+00 1.092406715467e-02 -3.219504850564e+07 -3.515081817627e+05 -2.668228887656e+06 -2.008810865385e+07 3.620026664717e-04 -1.373292905963e-05 2.464710320496e-04 0.000000000000e+00 1.831712868238e+07 2.571579892214e+07  3.211487340531e-04
2.700000000000e+01 1.736139339791e+06 1.000000000000e+00 6.142803472053e+01 0.000000000000e+00 1.108157072644e-02 -3.225350596716e+07 -3.540138613875e+05 -2.770258839104e+06 -2.021024929952e+07 3.643680418833e-04 -1.391906526033e-05 2.472180006921e-04 0.000000000000e+00 1.841133803526e+07 2.568274824196e+07  3.230846516236e-04
2.800000000000e+01 1.770681594199e+06 1.000000000000e+00 6.161817548849e+01 0.000000000000e+00 1.123172715259e-02 -3.230376428938e+07 -3.564334416710e+05 -2.866995286615e+06 -2.032167191023e+07 3.666398583125e-04 -1.409880550996e-05 2.477634867537e-04 0.000000000000e+00 1.849747716207e+07 2.564685080014e+07  3.249121271110e-04
2.900000000000e+01 1.804755349151e+06 1.000000000000e+00 6.178991237561e+01 0.000000000000e+00 1.137478681552e-02 -3.234599680219e+07 -3.587681973465e+05 -2.958525679183e+06 -2.042268424695e+07 3.688231089149e-04 -1.427224450300e-05 2.481156732507e-04 0.000000000000e+00 1.857573557611e+07 2.560818192973e+07  3.266376737196e-04
3.000000000000e+01 1.838370950549e+06 1.000000000000e+00 6.194386924086e+01 0.000000000000e+00 1.151101705678e-02 -3.238036019448e+07 -3.610275554628e+05 -3.045403006115e+06 -2.051371752849e+07 3.709279905155e-04 -1.444008253450e-05 2.482700372791e-04 0.000000000000e+00 1.864649357636e+07 2.556639375267e+07  3.282694434091e-04
3.100000000000e+01 1.871447001257e+06 1.000000000000e+00 6.210580140263e+01 0.000000000000e+00 1.164271137544e-02 -3.241393871008e+07 -3.632453455896e+05 -3.133844713752e+06 -2.060764412478e+07 3.731694906556e-04 -1.460483265820e-05 2.484737617148e-04 0.000000000000e+00 1.871847584954e+07 2.552290975979e+07  3.300178106214e-04
3.200000000000e+01 1.904061231697e+06 1.000000000000e+00 6.226094204290e+01 0.000000000000e+00 1.176977435799e-02 -3.244248957947e+07 -3.654256232966e+05 -3.221282169625e+06 -2.069737125831e+07 3.754417518951e-04 -1.476679614501e-05 2.485588068849e-04 0.000000000000e+00 1.878704766913e+07 2.547588734490e+07  3.317722267542e-04
3.300000000000e+01 1.936240664812e+06 1.000000000000e+00 6.240572497300e+01 0.000000000000e+00 1.189221182626e-02 -3.246503459369e+07 -3.675713906637e+05 -3.306981794905e+06 -2.078114803861e+07 3.777160746351e-04 -1.492619600656e-05 2.484873869284e-04 0.000000000000e+00 1.885105480907e+07 2.542501117330e+07  3.335057842002e-04
3.400000000000e+01 1.968010593866e+06 1.000000000000e+00 6.253918901855e+01 0.000000000000e+00 1.201001908907e-02 -3.248159074863e+07 -3.696797976456e+05 -3.390572359089e+06 -2.085853334502e+07 3.799754431187e-04 -1.508282052521e-05 2.482569059257e-04 0.000000000000e+00 1.891023215091e+07 2.537057798189e+07  3.352070633230e-04
3.500000000000e+01 1.999407455002e+06 1.000000000000e+00 6.266110742446e+01 0.000000000000e+00 1.212344201251e-02 -3.249013645087e+07 -3.717849400996e+05 -3.474126104109e+06 -2.092946339671e+07 3.822925760978e-04 -1.523920253609e-05 2.477880258875e-04 0.000000000000e+00 1.896457531723e+07 2.530905136663e+07  3.369209056319e-04
3.600000000000e+01 2.030469901429e+06 1.000000000000e+00 6.277151349027e+01 0.000000000000e+00 1.223274742111e-02 -3.248840697789e+07 -3.739290122379e+05 -3.560260281228e+06 -2.099405573762e+07 3.847559577570e-04 -1.539847646636e-05 2.469879005427e-04 0.000000000000e+00 1.901424099891e+07 2.523622340199e+07  3.387055403278e-04
3.700000000000e+01 2.061269396574e+06 1.000000000000e+00 6.287055186444e+01 0.000000000000e+00 1.233872803467e-02 -3.246841965358e+07 -3.762468965454e+05 -3.657490076246e+06 -2.105252077854e+07 3.876699027511e-04 -1.557066215777e-05 2.455480668191e-04 0.000000000000e+00 1.905947683612e+07 2.513790836299e+07  3.407602500194e-04
3.800000000000e+01 2.093583371613e+06 1.000000000000e+00 6.295867248218e+01 0.000000000000e+00 1.246392965366e-02 -3.217792114567e+07 -3.829879675668e+05 -4.032971020262e+06 -2.110948559461e+07 4.005756833558e-04 -1.607142743365e-05 2.337174677809e-04 0.000000000000e+00 1.910679258685e+07 2.456762007010e+07  3.496256152124e-04
3.900000000000e+01 2.123384718586e+06 1.000000000000e+00 6.303542968280e+01 0.000000000000e+00 1.255387466681e-02 -3.223278230846e+07 -3.838072434658e+05 -4.036659858608e+06 -2.115454568388e+07 4.002116434823e-04 -1.613228792900e-05 2.352541142438e-04 0.000000000000e+00 1.914132928365e+07 2.461355836775e+07  3.494898772375e-04
4.000000000000e+01 2.152770412537e+06 1.000000000000e+00 6.310126011054e+01 0.000000000000e+00 1.263790501404e-02 -3.229845362413e+07 -3.842772567797e+05 -4.017558432209e+06 -2.119218776863e+07 3.991705577626e-04 -1.616720320375e-05 2.373617303724e-04 0.000000000000e+00 1.916939994166e+07 2.468817612759e+07  3.488754022627e-04
4.200000000000e+01 2.210053104714e+06 1.000000000000e+00 6.324270891614e+01 0.000000000000e+00 1.279570542490e-02 -3.242277567587e+07 -3.851783168462e+05 -3.984923231036e+06 -2.127024073646e+07 3.974519917890e-04 -1.623413909440e-05 2.414730052211e-04 0.000000000000e+00 1.922597988112e+07 2.482703025461e+07  3.479856505024e-04
4.400000000000e+01 2.265818595915e+06 1.000000000000e+00 6.336221829407e+01 0.000000000000e+00 1.294264148264e-02 -3.253251945067e+07 -3.860194232953e+05 -3.950167234986e+06 -2.133559240211e+07 3.958031420204e-04 -1.629662128776e-05 2.451912897984e-04 0.000000000000e+00 1.927275969592e+07 2.495464994469e+07  3.471716470627e-04
5.000000000000e+01 2.417340202335e+06 1.000000000000e+00 6.341051342750e+01 0.000000000000e+00 1.324648886484e-02 -3.269475665561e+07 -3.877700138171e+05 -3.824413018378e+06 -2.136650679826e+07 3.909254376939e-04 -1.642666515510e-05 2.510104097009e-04 0.000000000000e+00 1.929522549075e+07 2.520370244871e+07  3.442558283031e-04
6.500000000000e+01 2.748724178568e+06 1.000000000000e+00 6.313073733148e+01 0.000000000000e+00 1.375771988781e-02 -3.273355133994e+07 -3.910301509068e+05 -3.471775688546e+06 -2.118036150566e+07 3.825705242648e-04 -1.666884676748e-05 2.571943996551e-04 0.000000000000e+00 1.912856284472e+07 2.553663200909e+07  3.390394081724e-04
8.000000000000e+01 3.003777392184e+06 1.000000000000e+00 6.251553785946e+01 0.000000000000e+00 1.399306059803e-02 -3.253460235896e+07 -3.927181641289e+05 -3.155410756177e+06 -2.081500303166e+07 3.763896002385e-04 -1.679424203541e-05 2.553746395374e-04 0.000000000000e+00 1.883500538226e+07 2.562491436376e+07  3.340825031286e-04
1.000000000000e+02 3.304456935822e+06 1.000000000000e+00 6.178031670149e+01 0.000000000000e+00 1.418711129333e-02 -3.223410570702e+07 -3.942656912518e+05 -2.810550521458e+06 -2.036840610978e+07 3.709630187838e-04 -1.690920119311e-05 2.515958483002e-04 0.000000000000e+00 1.847102077942e+07 2.564908762668e+07  3.293008351692e-04
1.860000000000e+02 3.902938202522e+06 1.000000000000e+00 5.983575743522e+01 0.000000000000e+00 1.440624572217e-02 -3.126842067445e+07 -3.968873868420e+05 -2.007272587840e+06 -1.916532358172e+07 3.621453975225e-04 -1.710395572267e-05 2.367459633637e-04 0.000000000000e+00 1.748033894800e+07 2.547590604943e+07  3.199048530511e-04
2.720000000000e+02 4.193259632165e+06 1.000000000000e+00 5.817021896826e+01 0.000000000000e+00 1.419385840809e-02 -3.043054697183e+07 -3.962139010149e+05 -1.584897179605e+06 -1.820829041776e+07 3.577194746726e-04 -1.705392534693e-05 2.168872467223e-04 0.000000000000e+00 1.674124485640e+07 2.508718978574e+07  3.135139829407e-04
3.580000000000e+02 4.334625370859e+06 1.000000000000e+00 5.696011998448e+01 0.000000000000e+00 1.397993396455e-02 -2.979964799194e+07 -3.953650857554e+05 -1.307550156106e+06 -1.751458302397e+07 3.553865907279e-04 -1.699087049909e-05 2.014224329688e-04 0.000000000000e+00 1.620726039067e+07 2.476215111860e+07  3.100868630954e-04
4.440000000000e+02 4.406754288317e+06 1.000000000000e+00 5.602081320516e+01 0.000000000000e+00 1.378231601287e-02 -2.930942802175e+07 -3.944736173236e+05 -1.113464077766e+06 -1.698208205289e+07 3.538161535521e-04 -1.692464712987e-05 1.888527369527e-04 0.000000000000e+00 1.580165805080e+07 2.449206539285e+07  3.080444916468e-04
5.300000000000e+02 4.445718820727e+06 1.000000000000e+00 5.528906129963e+01 0.000000000000e+00 1.361212971930e-02 -2.892731265337e+07 -3.936592481957e+05 -9.732173061740e+05 -1.657034357381e+07 3.527158665834e-04 -1.686415113751e-05 1.787687592461e-04 0.000000000000e+00 1.549029117779e+07 2.427268305054e+07  3.068637690691e-04
6.160000000000e+02 4.468234309314e+06 1.000000000000e+00 5.472602773133e+01 0.000000000000e+00 1.347164801076e-02 -2.863324383899e+07 -3.929617653014e+05 -8.717888638714e+05 -1.625539429581e+07 3.519403065060e-04 -1.681233812251e-05 1.708379853488e-04 0.000000000000e+00 1.525347566622e+07 2.409866564178e+07  3.062201622926e-04
7.020000000000e+02 4.482044613276e+06 1.000000000000e+00 5.430995063480e+01 0.000000000000e+00 1.336407734239e-02 -2.841598709803e+07 -3.924174099093e+05 -7.994955312486e+05 -1.602343687352e+07 3.513942811994e-04 -1.677190029338e-05 1.649076048754e-04 0.000000000000e+00 1.507963983427e+07 2.396808551032e+07  3.058901104060e-04
7.880000000000e+02 4.491663181074e+06 1.000000000000e+00 5.397872581268e+01 0.000000000000e+00 1.326763983554e-02 -2.824487737953e+07 -3.918968573054e+05 -7.502093108757e+05 -1.584174635005e+07 3.510012798716e-04 -1.673323067137e-05 1.599897307602e-04 0.000000000000e+00 1.494561101349e+07 2.385865063898e+07  3.057482872939e-04
8.740000000000e+02 4.500049265801e+06 1.000000000000e+00 5.345336087711e+01 0.000000000000e+00 1.313083795640e-02 -2.797034721766e+07 -3.912120794330e+05 -6.586542794400e+05 -1.554871739743e+07 3.503141819298e-04 -1.668236145799e-05 1.525064136878e-04 0.000000000000e+00 1.472590629818e+07 2.369449007203e+07  3.055944637562e-04
9.370000000000e+02 4.505423121656e+06 1.000000000000e+00 5.307936059738e+01 0.000000000000e+00 1.301926592815e-02 -2.777200657795e+07 -3.906312266760e+05 -6.016557946710e+05 -1.534156891251e+07 3.499870333930e-04 -1.663921239605e-05 1.469294136819e-04 0.000000000000e+00 1.457174376171e+07 2.356824492293e+07  3.057554197441e-04
1.000000000000e+03 4.509613149595e+06 1.000000000000e+00 5.277859554472e+01 0.000000000000e+00 1.292622327723e-02 -2.760770914495e+07 -3.901586211051e+05 -5.556139270502e+05 -1.517342702984e+07 3.498442395487e-04 -1.660410455364e-05 1.423942702661e-04 0.000000000000e+00 1.444558336728e+07 2.346296048884e+07  3.060692631036e-04
1.100000000000e+03 4.513758462105e+06 1.000000000000e+00 5.247289760991e+01 0.000000000000e+00 1.282910580331e-02 -2.743804365154e+07 -3.896697403781e+05 -5.091991990453e+05 -1.500180341509e+07 3.497715093274e-04 -1.656778769963e-05 1.377436544726e-04 0.000000000000e+00 1.431634875522e+07 2.335347261937e+07  3.065258421851e-04
1.200000000000e+03 4.517019836215e+06 1.000000000000e+00 5.221269628220e+01 0.000000000000e+00 1.274825360654e-02 -2.729565244384e+07 -3.892599460710e+05 -4.694151361348e+05 -1.485627393821e+07 3.496549450436e-04 -1.653734583682e-05 1.338159676681e-04 0.000000000000e+00 1.420711383940e+07 2.326237296279e+07  3.069142069006e-04
1.300000000000e+03 4.519925210579e+06 1.000000000000e+00 5.196357675456e+01 0.000000000000e+00 1.267125987363e-02 -2.715999515126e+07 -3.888684938467e+05 -4.313377575299e+05 -1.471715493625e+07 3.495263672662e-04 -1.650826652873e-05 1.300629930862e-04 0.000000000000e+00 1.410282928168e+07 2.317582019460e+07  3.073144752319e-04
1.400000000000e+03 4.522664725124e+06 1.000000000000e+00 5.170814257527e+01 0.000000000000e+00 1.259174846916e-02 -2.702070217411e+07 -3.884643284209e+05 -3.925182779273e+05 -1.457451230177e+07 3.494019514225e-04 -1.647824281138e-05 1.262067044764e-04 0.000000000000e+00 1.399591091794e+07 2.308681660219e+07  3.077784666679e-04
1.500000000000e+03 4.525304612681e+06 1.000000000000e+00 5.143632875318e+01 0.000000000000e+00 1.250599935672e-02 -2.687180040908e+07 -3.880294170457e+05 -3.515674229935e+05 -1.442261464591e+07 3.492906754776e-04 -1.644593510923e-05 1.220858232992e-04 0.000000000000e+00 1.388199415933e+07 2.299133265736e+07  3.083454084054e-04
1.600000000000e+03 4.527865656785e+06 1.000000000000e+00 5.114199614483e+01 0.000000000000e+00 1.241173472101e-02 -2.670965004947e+07 -3.875523251362e+05 -3.076500160250e+05 -1.425797081140e+07 3.491980606957e-04 -1.641049399594e-05 1.176016988478e-04 0.000000000000e+00 1.375842362563e+07 2.288692369822e+07  3.090486578728e-04
1.700000000000e+03 4.530352944705e+06 1.000000000000e+00 5.082135521810e+01 0.000000000000e+00 1.230754300576e-02 -2.653201638813e+07 -3.870261895194e+05 -2.602591347545e+05 -1.407843199576e+07 3.491272978217e-04 -1.637140963584e-05 1.126933469998e-04 0.000000000000e+00 1.362356917288e+07 2.277210607567e+07  3.099183860022e-04
1.800000000000e+03 4.532766352570e+06 1.000000000000e+00 5.047211883708e+01 0.000000000000e+00 1.219257251339e-02 -2.633754486264e+07 -3.864467141775e+05 -2.090828820166e+05 -1.388269777788e+07 3.490803978184e-04 -1.632836289615e-05 1.073240511514e-04 0.000000000000e+00 1.347644184084e+07 2.264600993636e+07  3.109834399607e-04
1.900000000000e+03 4.535105643823e+06 1.000000000000e+00 5.009300096791e+01 0.000000000000e+00 1.206634194055e-02 -2.612548407826e+07 -3.858116442239e+05 -1.539580089694e+05 -1.367004366233e+07 3.490583598037e-04 -1.628118627104e-05 1.014729650014e-04 0.000000000000e+00 1.331649524985e+07 2.250817448684e+07  3.122719096019e-04
2.000000000000e+03 4.537369988248e+06 1.000000000000e+00 4.968339990059e+01 0.000000000000e+00 1.192863043775e-02 -2.589547196990e+07 -3.851196887163e+05 -9.479589166772e+04 -1.344012385036e+07 3.490617879552e-04 -1.622978386190e-05 9.513053634236e-05 0.000000000000e+00 1.314346390398e+07 2.235842418694e+07  3.138116207266e-04