 TITLE = "Time curves in points"
 VARIABLES = "TIME"  "PRESSURE1"  "SATURATION1"  "TEMPERATURE1"  "DISPLACEMENT_X1"  "DISPLACEMENT_Y1"  "STRESS_XX"  "STRESS_XY"  "STRESS_YY"  "STRESS_ZZ"  "STRAIN_XX"  "STRAIN_XY"  "STRAIN_YY"  "STRAIN_PLS"  p_(1st_Invariant)  q_(2nd_Invariant)   Effective_Strain
 ZONE T="POINT=POINT7"
0.000000000000e+00 1.000000000000e+05 1.000000000000e+00 2.500000000000e+01 0.000000000000e+00 0.000000000000e+00 -1.262331305483e+06 1.487475914788e+03 -1.327249178965e+07 -1.357396928539e+06 0.000000000000e+00 0.000000000000e+00 0.000000000000e+00 0.000000000000e+00 5.297406674556e+06 1.196291125004e+07  0.000000000000e+00
1.000000000000e-03 1.413412552946e+05 1.000000000000e+00 2.500109376761e+01 -1.503823674635e-03 6.275912513475e-05 3.067864835910e+07 2.494188602369e+03 -4.471539912869e+07 -1.208343338455e+06 1.180842968481e-03 7.478437107746e-08 -1.173415691653e-03 0.000000000000e+00 5.081698036015e+06 6.555115016905e+07  2.038851192952e-03
2.000000000000e-03 1.644103862254e+05 1.000000000000e+00 2.500683293066e+01 -1.503182706002e-03 6.218268103879e-05 3.068045063349e+07 2.320448463728e+03 -4.470057892115e+07 -1.205299007622e+06 1.180796834956e-03 6.187796077842e-08 -1.172978301947e-03 0.000000000000e+00 5.075142431761e+06 6.553945397222e+07  2.038432814733e-03
3.000000000000e-03 1.801483320568e+05 1.000000000000e+00 2.502287688410e+01 -1.502476894488e-03 6.170668600322e-05 3.067588893123e+07 2.249017758675e+03 -4.469189664704e+07 -1.209506950910e+06 1.180783695337e-03 5.657167983160e-08 -1.172499522444e-03 0.000000000000e+00 5.075171555574e+06 6.552747445754e+07  2.038007260487e-03
4.000000000000e-03 1.908868948307e+05 1.000000000000e+00 2.505459539116e+01 -1.501713255743e-03 6.119635851950e-05 3.066651113422e+07 2.219569584328e+03 -4.469193907310e+07 -1.223119711640e+06 1.180940993990e-03 5.438410116582e-08 -1.171995481442e-03 0.000000000000e+00 5.082849216839e+06 6.551863421719e+07  2.037707672235e-03
1.000000000000e-02 2.065775524954e+05 1.000000000000e+00 2.569747038960e+01 -1.496279493975e-03 5.840184957307e-05 3.055562800404e+07 2.187403359942e+03 -4.491367571560e+07 -1.544004786153e+06 1.188741066208e-03 5.199461021140e-08 -1.168312825396e-03 0.000000000000e+00 5.300684165904e+06 6.560080264155e+07  2.041294104804e-03
2.000000000000e-02 2.047081502288e+05 1.000000000000e+00 2.711487637348e+01 -1.487012476359e-03 5.658646542273e-05 3.034812559882e+07 2.165626459449e+03 -4.544580717628e+07 -2.256238740122e+06 1.207488238019e-03 5.037689760343e-08 -1.161623304216e-03 0.000000000000e+00 5.784640105860e+06 6.585250059528e+07  2.051838938687e-03
3.000000000000e-02 1.946342826967e+05 1.000000000000e+00 2.850789376593e+01 -1.478111831592e-03 5.694010279113e-05 3.014504020214e+07 2.151436431322e+03 -4.596730121205e+07 -2.957024568596e+06 1.225974254057e-03 4.932278122824e-08 -1.154963894773e-03 0.000000000000e+00 6.259761859500e+06 6.610113135323e+07  2.062258586234e-03
4.000000000000e-02 1.814166459032e+05 1.000000000000e+00 2.976923480355e+01 -1.469678483739e-03 5.962581039653e-05 2.995205824342e+07 2.137305922420e+03 -4.642416476101e+07 -3.590561950032e+06 1.242337741186e-03 4.827308628123e-08 -1.148401723852e-03 0.000000000000e+00 6.687556155873e+06 6.630668279685e+07  2.070973778950e-03
5.000000000000e-02 1.672995046410e+05 1.000000000000e+00 3.088421896860e+01 -1.461772068847e-03 6.331027158984e-05 2.977076902821e+07 2.126586734017e+03 -4.681601617484e+07 -4.150719208428e+06 1.256409982790e-03 4.747680371417e-08 -1.142150363911e-03 0.000000000000e+00 7.065322118352e+06 6.647003318900e+07  2.077999669025e-03
6.000000000000e-02 1.529792284772e+05 1.000000000000e+00 3.186615850081e+01 -1.454423912757e-03 6.931286679374e-05 2.960348327477e+07 2.115109893652e+03 -4.714151557522e+07 -4.640773528273e+06 1.268398529542e-03 4.662423842990e-08 -1.136038324045e-03 0.000000000000e+00 7.392935276242e+06 6.659120465144e+07  2.083354806481e-03
7.000000000000e-02 1.393283982792e+05 1.000000000000e+00 3.273437623174e+01 -1.447634994086e-03 7.532874702412e-05 2.944770202274e+07 2.106982306035e+03 -4.742239390452e+07 -5.074570306487e+06 1.278724820515e-03 4.602047477836e-08 -1.130358495943e-03 0.000000000000e+00 7.683087396089e+06 6.668634464703e+07  2.087645795423e-03
8.000000000000e-02 1.270065969354e+05 1.000000000000e+00 3.350732326890e+01 -1.441293547429e-03 8.212992408392e-05 2.930217409297e+07 2.098475204047e+03 -4.766095305243e+07 -5.459513397722e+06 1.287617383655e-03 4.538851863065e-08 -1.124921378048e-03 0.000000000000e+00 7.939430785730e+06 6.675574654122e+07  2.090902905752e-03
9.000000000000e-02 1.169056160976e+05 1.000000000000e+00 3.420069463646e+01 -1.435284023095e-03 8.831897538583e-05 2.916285683256e+07 2.088760752199e+03 -4.787046086805e+07 -5.806211122321e+06 1.295320086611e-03 4.466687363624e-08 -1.119825752857e-03 0.000000000000e+00 8.171271719268e+06 6.680706879682e+07  2.093417454954e-03
1.000000000000e-01 1.100278956187e+05 1.000000000000e+00 3.482738062836e+01 -1.429601879315e-03 9.385811961378e-05 2.902957108055e+07 2.083746681493e+03 -4.805705197310e+07 -6.121017110709e+06 1.302062266819e-03 4.429439981236e-08 -1.115063485762e-03 0.000000000000e+00 8.382832667754e+06 6.684512828187e+07  2.095379397569e-03
2.000000000000e-01 1.318593055728e+05 1.000000000000e+00 3.845524795901e+01 -1.392082559726e-03 1.886880319523e-04 2.813761858619e+07 2.040308941120e+03 -4.876802097901e+07 -7.869969423046e+06 1.333893688630e-03 4.106759624177e-08 -1.076509820094e-03 0.000000000000e+00 9.500123938621e+06 6.664710960434e+07  2.091433820411e-03
3.000000000000e-01 1.629554445424e+05 1.000000000000e+00 4.086000168790e+01 -1.360287118776e-03 2.983609703203e-04 2.737234012895e+07 2.021429054852e+03 -4.889687995029e+07 -8.979183798128e+06 1.346668451292e-03 3.966509040473e-08 -1.040096619382e-03 0.000000000000e+00 1.016790787315e+07 6.607514553117e+07  2.072675132213e-03
4.000000000000e-01 1.945601270973e+05 1.000000000000e+00 4.260833982862e+01 -1.334041741054e-03 4.037927183679e-04 2.671848848335e+07 2.034841594316e+03 -4.881669704439e+07 -9.762871294397e+06 1.351490925746e-03 4.066145047919e-08 -1.008010004444e-03 0.000000000000e+00 1.062035995181e+07 6.542803372599e+07  2.050592175558e-03
5.000000000000e-01 2.245148909533e+05 1.000000000000e+00 4.396249257284e+01 -1.311356740463e-03 5.062196680841e-04 2.613313051956e+07 2.071349633912e+03 -4.861589599051e+07 -1.035200682857e+07 1.351631235503e-03 4.337347627773e-08 -9.786695026021e-04 0.000000000000e+00 1.094492409984e+07 6.474066516129e+07  2.026697132456e-03
6.000000000000e-01 2.522521230240e+05 1.000000000000e+00 4.505718526874e+01 -1.291579431500e-03 6.060885453672e-04 2.560379083215e+07 2.131592582118e+03 -4.834517065931e+07 -1.081263206876e+07 1.349078984606e-03 4.784866671588e-08 -9.515050528077e-04 0.000000000000e+00 1.118467063197e+07 6.404411074750e+07  2.002256589347e-03
7.000000000000e-01 2.779137576490e+05 1.000000000000e+00 4.597126724407e+01 -1.274331794359e-03 7.035854405048e-04 2.512270542361e+07 2.230353495388e+03 -4.803714724756e+07 -1.118442149792e+07 1.345019419658e-03 5.518519170167e-08 -9.262548615738e-04 0.000000000000e+00 1.136628777396e+07 6.335887835650e+07  1.978094055739e-03
8.000000000000e-01 3.017451815834e+05 1.000000000000e+00 4.675249302795e+01 -1.260048970551e-03 7.988748215624e-04 2.470419127521e+07 2.334794892205e+03 -4.772956149642e+07 -1.149110417814e+07 1.340865679411e-03 6.294369546517e-08 -9.034391769807e-04 0.000000000000e+00 1.150549146645e+07 6.272947383429e+07  1.955892050820e-03
9.000000000000e-01 3.238471545663e+05 1.000000000000e+00 4.743225994710e+01 -1.247403362679e-03 8.919223292116e-04 2.431576536070e+07 2.445292465401e+03 -4.740973556764e+07 -1.174959598706e+07 1.336039555489e-03 7.115208661691e-08 -8.819588038661e-04 0.000000000000e+00 1.161452206466e+07 6.211643648564e+07  1.934214282083e-03
1.000000000000e+00 3.443912469976e+05 1.000000000000e+00 4.803207453589e+01 -1.236311018671e-03 9.827853235345e-04 2.395948052303e+07 2.562737706834e+03 -4.708523524802e+07 -1.196907413166e+07 1.330958164032e-03 7.987659026620e-08 -8.617538894809e-04 0.000000000000e+00 1.169827628555e+07 6.152786965888e+07  1.913381246425e-03
2.000000000000e+00 4.794860735554e+05 1.000000000000e+00 5.127880706506e+01 -1.175744964939e-03 1.736040384821e-03 2.145698824005e+07 3.327349596251e+03 -4.394808628342e+07 -1.291548392873e+07 1.273160814555e-03 1.366763306229e-07 -7.100788497615e-04 0.000000000000e+00 1.180219399070e+07 5.666706756020e+07  1.740458288900e-03
3.000000000000e+00 5.833068106829e+05 1.000000000000e+00 5.336279825183e+01 -1.134525033601e-03 2.378736180239e-03 1.945327968934e+07 4.325246147996e+03 -4.104132796275e+07 -1.337454578683e+07 1.215788223116e-03 2.108057887525e-07 -5.850626716929e-04 0.000000000000e+00 1.165419802008e+07 5.245338229652e+07  1.591147941777e-03
4.000000000000e+00 6.697389271595e+05 1.000000000000e+00 5.487856708130e+01 -1.102900056231e-03 2.939074342551e-03 1.776682430241e+07 5.211615228541e+03 -3.842200214357e+07 -1.362580602259e+07 1.162480974643e-03 2.766503490216e-07 -4.784409039381e-04 0.000000000000e+00 1.142699462125e+07 4.877259969047e+07  1.461658781281e-03
5.000000000000e+00 7.455616936904e+05 1.000000000000e+00 5.609238362981e+01 -1.077060818671e-03 3.436395455763e-03 1.631345086908e+07 6.088951488184e+03 -3.609032873982e+07 -1.378771713579e+07 1.114512374182e-03 3.418238997379e-07 -3.858220504513e-04 0.000000000000e+00 1.118819833551e+07 4.555020932645e+07  1.349444436355e-03
6.000000000000e+00 8.142424172664e+05 1.000000000000e+00 5.715099475063e+01 -1.053794349547e-03 3.885137487399e-03 1.500805570470e+07 6.803766075389e+03 -3.399354603941e+07 -1.392129378901e+07 1.070987686624e-03 3.949244119303e-07 -3.029801316025e-04 0.000000000000e+00 1.096892804124e+07 4.266708229871e+07  1.250319976318e-03
7.000000000000e+00 8.779804295062e+05 1.000000000000e+00 5.802927741648e+01 -1.033994597604e-03 4.292355600952e-03 1.386156690712e+07 7.377879648229e+03 -3.209766760630e+07 -1.400438755790e+07 1.031490156987e-03 4.375728487699e-07 -2.294754498134e-04 0.000000000000e+00 1.074682941903e+07 4.010068431345e+07  1.163328486796e-03
8.000000000000e+00 9.374729027878e+05 1.000000000000e+00 5.887475893382e+01 -1.016126765619e-03 4.667778582344e-03 1.282097254030e+07 7.743423714256e+03 -3.039671562143e+07 -1.410257915322e+07 9.964866254742e-04 4.647275508176e-07 -1.626501168352e-04 0.000000000000e+00 1.055944074478e+07 3.780307824005e+07  1.086977446513e-03
9.000000000000e+00 9.938022199914e+05 1.000000000000e+00 5.964199068878e+01 -9.996931622523e-04 5.015893393718e-03 1.186590008364e+07 8.075442536323e+03 -2.883339666501e+07 -1.418900260747e+07 9.642225196708e-04 4.893918061711e-07 -1.013739701530e-04 0.000000000000e+00 1.038549972961e+07 3.570538739929e+07  1.018699922798e-03
1.000000000000e+01 1.047465234105e+06 1.000000000000e+00 6.033450466820e+01 -9.841071354906e-04 5.340063356734e-03 1.097575968132e+07 8.369222442274e+03 -2.737610103951e+07 -1.426159441747e+07 9.338564290985e-04 5.112154563275e-07 -4.454957969197e-05 0.000000000000e+00 1.022064525855e+07 3.376225678817e+07  9.569097087249e-04
1.100000000000e+01 1.098754034962e+06 1.000000000000e+00 6.098462691748e+01 -9.701077589360e-04 5.643903305644e-03 1.015942753902e+07 8.370147906073e+03 -2.603461062233e+07 -1.433191024399e+07 9.061472516556e-04 5.112842050669e-07 7.888937931559e-06 0.000000000000e+00 1.006903110910e+07 3.199052704574e+07  9.022290850079e-04
1.200000000000e+01 1.148069437469e+06 1.000000000000e+00 6.157760704103e+01 -9.573451204708e-04 5.929385775458e-03 9.404334193599e+06 8.497536786467e+03 -2.478457163599e+07 -1.439128830230e+07 8.803063981342e-04 5.207473790390e-07 5.652442816145e-05 0.000000000000e+00 9.923841914896e+06 3.035731957448e+07  8.534496841332e-04
1.300000000000e+01 1.195671850334e+06 1.000000000000e+00 6.211548572326e+01 -9.455685596969e-04 6.198103259038e-03 8.702206966207e+06 8.584680114456e+03 -2.360838665350e+07 -1.443764725164e+07 8.559492906638e-04 5.272208834038e-07 1.019332027721e-04 0.000000000000e+00 9.781275646312e+06 2.884033821437e+07  8.098090807671e-04
1.400000000000e+01 1.242278224164e+06 1.000000000000e+00 6.260219911433e+01 -9.348307139730e-04 6.451598641261e-03 8.051881776701e+06 8.598761756809e+03 -2.250028435154e+07 -1.447098313218e+07 8.330325449021e-04 5.282669482644e-07 1.443294781220e-04 0.000000000000e+00 9.639795235675e+06 2.743341411978e+07  7.710667311295e-04
1.500000000000e+01 1.287441539263e+06 1.000000000000e+00 6.304162075817e+01 -9.250172067606e-04 6.690804250808e-03 7.447794314417e+06 8.570403908426e+03 -2.145685494511e+07 -1.449329747177e+07 8.114238289163e-04 5.261603652417e-07 1.839142458313e-04 0.000000000000e+00 9.500786034156e+06 2.612835462655e+07  7.368863609420e-04
1.600000000000e+01 1.331301209416e+06 1.000000000000e+00 6.343728711869e+01 -9.157737493685e-04 6.916731945499e-03 6.880830616716e+06 8.545160863874e+03 -2.046681955368e+07 -1.450517875534e+07 7.908064821056e-04 5.242851676464e-07 2.211282937599e-04 0.000000000000e+00 9.363722564100e+06 2.490779964018e+07  7.066850436962e-04
1.700000000000e+01 1.373995899809e+06 1.000000000000e+00 6.379231128794e+01 -9.066654751273e-04 7.130270364800e-03 6.339197727579e+06 8.491930906324e+03 -1.951793800280e+07 -1.450758228199e+07 7.707779629278e-04 5.203309422283e-07 2.564617394969e-04 0.000000000000e+00 9.228774185738e+06 2.375167154195e+07  6.798507535154e-04
1.800000000000e+01 1.415660520573e+06 1.000000000000e+00 6.410942490967e+01 -8.976315222499e-04 7.332206805180e-03 5.820347291853e+06 8.405650647734e+03 -1.860591503800e+07 -1.450094001915e+07 7.512596626951e-04 5.139215515903e-07 2.900901655695e-04 0.000000000000e+00 9.095502588433e+06 2.265445048129e+07  6.562096748465e-04
1.900000000000e+01 1.456386845311e+06 1.000000000000e+00 6.439102588140e+01 -8.886375888758e-04 7.523234481196e-03 5.322238820088e+06 8.301098447559e+03 -1.772799507100e+07 -1.448587663103e+07 7.321989936137e-04 5.061548167201e-07 3.221391242137e-04 0.000000000000e+00 8.963877627313e+06 2.161233982690e+07  6.356255246789e-04
2.000000000000e+01 1.496258952258e+06 1.000000000000e+00 6.463922849944e+01 -8.803414603882e-04 7.703971229398e-03 4.857353167011e+06 8.003088915712e+03 -1.689692814927e+07 -1.446321298736e+07 7.140900197344e-04 4.840169657829e-07 3.521655316843e-04 0.000000000000e+00 8.834262656538e+06 2.064529469273e+07  6.184399157055e-04
2.100000000000e+01 1.535203455131e+06 1.000000000000e+00 6.490219715541e+01 -8.723320864536e-04 7.876691502844e-03 4.413688112653e+06 7.864642627851e+03 -1.611560226018e+07 -1.445421461471e+07 6.972768067314e-04 4.737323843990e-07 3.808519822951e-04 0.000000000000e+00 8.718709587412e+06 1.975107714234e+07  6.047186096348e-04
2.200000000000e+01 1.573377123337e+06 1.000000000000e+00 6.514894858035e+01 -8.643700811098e-04 8.041798065119e-03 3.984895645892e+06 7.694201150920e+03 -1.536194485731e+07 -1.444337601349e+07 6.809476527778e-04 4.610710175412e-07 4.084423949279e-04 0.000000000000e+00 8.606808408301e+06 1.890430582874e+07  5.936224755149e-04
2.300000000000e+01 1.610847456904e+06 1.000000000000e+00 6.537489387485e+01 -8.571722344505e-04 8.199578163413e-03 3.585341490952e+06 7.460611963100e+03 -1.464723077469e+07 -1.442816639752e+07 6.655421412870e-04 4.437186778745e-07 4.344239894035e-04 0.000000000000e+00 8.496685227088e+06 1.812403764391e+07  5.852722980997e-04
2.400000000000e+01 1.647658377749e+06 1.000000000000e+00 6.557943297625e+01 -8.503549267940e-04 8.350294720629e-03 3.206967278081e+06 7.266921262522e+03 -1.396081274740e+07 -1.440759948094e+07 6.507243279073e-04 4.293302258316e-07 4.591556020870e-04 0.000000000000e+00 8.387148316753e+06 1.739548171718e+07  5.792088140375e-04
2.500000000000e+01 1.683862196393e+06 1.000000000000e+00 6.576290082939e+01 -8.438037965775e-04 8.494208162429e-03 2.846579334582e+06 7.091323514352e+03 -1.329958346795e+07 -1.438181838434e+07 6.363809064180e-04 4.162858216819e-07 4.827579631642e-04 0.000000000000e+00 8.278274172571e+06 1.671358422576e+07  5.751682177890e-04
2.600000000000e+01 1.719500585599e+06 1.000000000000e+00 6.592589690083e+01 -8.373449087075e-04 8.631563602872e-03 2.499770129756e+06 6.914253403518e+03 -1.265973390484e+07 -1.435121252581e+07 6.223626326359e-04 4.031320420199e-07 5.053870150486e-04 0.000000000000e+00 8.170392100295e+06 1.607214307116e+07  5.729029375400e-04
2.700000000000e+01 1.754601907614e+06 1.000000000000e+00 6.606909911883e+01 -8.309356944911e-04 8.762600200774e-03 2.165195800327e+06 6.753366688198e+03 -1.203948012821e+07 -1.431588714008e+07 6.086235003587e-04 3.911804574533e-07 5.271129267107e-04 0.000000000000e+00 8.063390489319e+06 1.546902090720e+07  5.722392394986e-04
2.800000000000e+01 1.789207694433e+06 1.000000000000e+00 6.619318799410e+01 -8.244837487705e-04 8.887536467371e-03 1.840400426926e+06 6.560472781617e+03 -1.143586071303e+07 -1.427592871536e+07 5.950755021428e-04 3.768511958216e-07 5.480489063563e-04 0.000000000000e+00 7.957129667153e+06 1.490069493976e+07  5.730116970102e-04
2.900000000000e+01 1.823345289409e+06 1.000000000000e+00 6.629882016573e+01 -8.179415620364e-04 9.006578662834e-03 1.523845223147e+06 6.360001623525e+03 -1.084780148138e+07 -1.423170646052e+07 5.816751965369e-04 3.619590526490e-07 5.682485654949e-04 0.000000000000e+00 7.851887572915e+06 1.436569014429e+07  5.750797887948e-04
3.000000000000e+01 1.857020782447e+06 1.000000000000e+00 6.638662319870e+01 -8.113326527988e-04 9.119930656720e-03 1.216054742818e+06 6.170284658895e+03 -1.027461048902e+07 -1.418307507032e+07 5.684366699173e-04 3.478657924193e-07 5.877322078610e-04 0.000000000000e+00 7.747210272173e+06 1.386443129540e+07  5.783262226944e-04
3.100000000000e+01 1.890157221970e+06 1.000000000000e+00 6.649384234833e+01 -8.045569511263e-04 9.229140031758e-03 9.119290149431e+05 5.971238861654e+03 -9.725839062699e+06 -1.414741893308e+07 5.558162006417e-04 3.330795331957e-07 6.067907757411e-04 0.000000000000e+00 7.653776326946e+06 1.340702526248e+07  5.829776013616e-04
3.200000000000e+01 1.922836036070e+06 1.000000000000e+00 6.659517491070e+01 -7.975386033622e-04 9.334317534549e-03 6.098193090397e+05 5.765216695506e+03 -9.186684711891e+06 -1.411198040396e+07 5.432786947693e-04 3.177750294247e-07 6.255002205466e-04 0.000000000000e+00 7.562948602270e+06 1.298001569534e+07  5.887118358250e-04
3.300000000000e+01 1.955083090101e+06 1.000000000000e+00 6.668629763295e+01 -7.902761883662e-04 9.435517111353e-03 3.090572971436e+05 5.556760738800e+03 -8.654276033019e+06 -1.407458751446e+07 5.307186555747e-04 3.022897297837e-07 6.438865212948e-04 0.000000000000e+00 7.473268750112e+06 1.258194230386e+07  5.954240748350e-04
3.400000000000e+01 1.986921382377e+06 1.000000000000e+00 6.676614181105e+01 -7.828081901661e-04 9.532769441943e-03 1.061559977579e+04 5.343889887360e+03 -8.129187279689e+06 -1.403474692402e+07 5.181538848847e-04 2.864764665339e-07 6.619100244878e-04 0.000000000000e+00 7.384439534645e+06 1.221483535290e+07  6.030234858713e-04
3.500000000000e+01 2.018392072710e+06 1.000000000000e+00 6.683445244803e+01 -7.748070235205e-04 9.626132863247e-03 -2.927701379100e+05 5.134833774323e+03 -7.603997206560e+06 -1.399232236074e+07 5.053095022772e-04 2.709465838511e-07 6.798413148535e-04 0.000000000000e+00 7.296363235069e+06 1.187313414457e+07  6.115487309065e-04
3.600000000000e+01 2.049537561571e+06 1.000000000000e+00 6.689125037303e+01 -7.658939365553e-04 9.715661457023e-03 -6.090435981530e+05 4.953861465639e+03 -7.070631405233e+06 -1.394728192923e+07 4.918892720122e-04 2.575029266346e-07 6.979791143038e-04 0.000000000000e+00 7.208985644205e+06 1.155312054033e+07  6.211293427570e-04
3.700000000000e+01 2.080444479447e+06 1.000000000000e+00 6.693667897783e+01 -7.547000540947e-04 9.801409798686e-03 -9.680481841373e+05 5.143399006582e+03 -6.499995741997e+06 -1.389990057235e+07 4.767949369915e-04 2.715828582475e-07 7.174142742542e-04 0.000000000000e+00 7.122648166161e+06 1.123819380948e+07  6.324218374047e-04
3.800000000000e+01 2.113459419543e+06 1.000000000000e+00 6.697128172722e+01 -6.965133728271e-04 9.883553960214e-03 -2.331151994205e+06 2.802825376526e+03 -4.941829921301e+06 -1.385370055408e+07 4.244493662245e-04 9.771167430048e-08 7.735730040585e-04 0.000000000000e+00 7.042227489861e+06 1.046437408219e+07  6.709917394709e-04
3.900000000000e+01 2.143157947788e+06 1.000000000000e+00 6.699431463638e+01 -7.022502758578e-04 9.962027584045e-03 -2.313479665024e+06 2.801275543593e+03 -4.751130684303e+06 -1.379945889176e+07 4.230910767081e-04 9.759654385406e-08 7.786414282610e-04 0.000000000000e+00 6.954689747029e+06 1.048194046257e+07  6.751683651632e-04
4.000000000000e+01 2.172544101843e+06 1.000000000000e+00 6.700640467700e+01 -7.076955686800e-04 1.003697065744e-02 -2.295915142835e+06 2.802298397726e+03 -4.564070201372e+06 -1.374251121750e+07 4.216282739170e-04 9.767252730388e-08 7.834741897260e-04 0.000000000000e+00 6.867498853903e+06 1.049792635881e+07  6.791666700303e-04
4.200000000000e+01 2.229827605392e+06 1.000000000000e+00 6.705938363722e+01 -7.176536698267e-04 1.017731654544e-02 -2.264495082047e+06 2.801388669822e+03 -4.224666696333e+06 -1.365014705881e+07 4.193646359950e-04 9.760494751674e-08 7.926499368762e-04 0.000000000000e+00 6.713102945731e+06 1.054312740233e+07  6.868415368072e-04
4.400000000000e+01 2.285593809494e+06 1.000000000000e+00 6.709134553240e+01 -7.268253386861e-04 1.030815527130e-02 -2.233840090987e+06 2.801260727980e+03 -3.897997556338e+06 -1.355447451760e+07 4.169496984177e-04 9.759544326566e-08 8.012298105450e-04 0.000000000000e+00 6.562104054974e+06 1.058710957429e+07  6.940776332812e-04
5.000000000000e+01 2.437116678573e+06 1.000000000000e+00 6.687825440752e+01 -7.459721834272e-04 1.058185465930e-02 -2.151945042411e+06 2.800970037506e+03 -3.078362871132e+06 -1.321044658145e+07 4.072133340221e-04 9.757384911612e-08 8.188952040814e-04 0.000000000000e+00 6.146918164997e+06 1.062562642077e+07  7.091875894051e-04
6.500000000000e+01 2.768502507756e+06 1.000000000000e+00 6.609332655386e+01 -7.721255606393e-04 1.104619337211e-02 -1.975452829044e+06 2.801857547146e+03 -1.401037045517e+06 -1.238151872814e+07 3.829800102529e-04 9.763977840369e-08 8.504071287671e-04 0.000000000000e+00 5.252669534234e+06 1.070483970159e+07  7.376835843487e-04
8.000000000000e+01 3.023556374630e+06 1.000000000000e+00 6.508995022091e+01 -7.814465563302e-04 1.126655979506e-02 -1.846116274211e+06 2.801177674285e+03 -2.551047174396e+05 -1.164924918216e+07 3.605853562961e-04 9.758927356257e-08 8.657717463879e-04 0.000000000000e+00 4.583490057937e+06 1.068782736919e+07  7.532582100100e-04
1.000000000000e+02 3.324236305531e+06 1.000000000000e+00 6.398517248716e+01 -7.858625471463e-04 1.145104487421e-02 -1.715916494567e+06 2.802161158110e+03 8.702630392667e+05 -1.088732139666e+07 3.371211732213e-04 9.766233236099e-08 8.792709453184e-04 0.000000000000e+00 3.910991617319e+06 1.070149128252e+07  7.683405863703e-04
1.860000000000e+02 3.922717201764e+06 1.000000000000e+00 6.134177071471e+01 -7.782902092057e-04 1.167037229644e-02 -1.446602919935e+06 2.801383950269e+03 3.099089504835e+06 -9.215360970165e+06 2.850228615808e-04 9.760459692137e-08 8.999545410555e-04 0.000000000000e+00 2.520958128422e+06 1.078570022881e+07  7.966483650807e-04
2.720000000000e+02 4.213038211969e+06 1.000000000000e+00 5.933712731376e+01 -7.555818405209e-04 1.150228241935e-02 -1.345254600779e+06 2.801854219475e+03 3.752871665174e+06 -8.288494018926e+06 2.543607409605e-04 9.763953120528e-08 8.898113916792e-04 0.000000000000e+00 1.960292318177e+06 1.046885857393e+07  7.938076864089e-04
3.580000000000e+02 4.354403691727e+06 1.000000000000e+00 5.793098822726e+01 -7.356887293516e-04 1.132638944354e-02 -1.288790784019e+06 2.802256162814e+03 4.058883961670e+06 -7.688351450513e+06 2.341669587563e-04 9.766938985331e-08 8.788865530080e-04 0.000000000000e+00 1.639419424287e+06 1.018699143160e+07  7.883334161633e-04
4.440000000000e+02 4.426532453840e+06 1.000000000000e+00 5.685978278960e+01 -7.189784751280e-04 1.116180023671e-02 -1.255242616944e+06 2.803128986403e+03 4.196741499606e+06 -7.262511744811e+06 2.195961301787e-04 9.773422817704e-08 8.681900724909e-04 0.000000000000e+00 1.440337620717e+06 9.927888628671e+06  7.818729505736e-04
5.300000000000e+02 4.465496889446e+06 1.000000000000e+00 5.603574081193e+01 -7.053087650060e-04 1.101915421239e-02 -1.234412051425e+06 2.804487390871e+03 4.252712139355e+06 -6.951409221919e+06 2.088146003334e-04 9.783513822323e-08 8.587137454027e-04 0.000000000000e+00 1.311036377996e+06 9.703735651839e+06  7.756809234628e-04
6.160000000000e+02 4.488012314786e+06 1.000000000000e+00 5.540782410069e+01 -6.944103051613e-04 1.090092917541e-02 -1.221514505246e+06 2.804192252635e+03 4.265428880214e+06 -6.724201872639e+06 2.008545219325e-04 9.781321366856e-08 8.507469513757e-04 0.000000000000e+00 1.226762499224e+06 9.517303905086e+06  7.702185214301e-04
7.020000000000e+02 4.501822576458e+06 1.000000000000e+00 5.494620916623e+01 -6.862061464245e-04 1.081024222114e-02 -1.213257263910e+06 2.804343933838e+03 4.262484467135e+06 -6.561216630446e+06 1.951074819007e-04 9.782448141511e-08 8.445838498942e-04 0.000000000000e+00 1.170663142407e+06 9.373819113016e+06  7.659009136290e-04
7.880000000000e+02 4.511441113274e+06 1.000000000000e+00 5.458458012108e+01 -6.793353010821e-04 1.072852035808e-02 -1.210419233343e+06 2.805298825754e+03 4.224123884868e+06 -6.445419356157e+06 1.909118528481e-04 9.789541624316e-08 8.388579866506e-04 0.000000000000e+00 1.143904901544e+06 9.240635405097e+06  7.615655937397e-04
8.740000000000e+02 4.519827167133e+06 1.000000000000e+00 5.400176550159e+01 -6.689813874893e-04 1.061299330082e-02 -1.199877709344e+06 2.805668078856e+03 4.221526844107e+06 -6.239271139458e+06 1.836464614050e-04 9.792284647353e-08 8.311045913736e-04 0.000000000000e+00 1.072540668232e+06 9.061331446295e+06  7.561953954450e-04
9.370000000000e+02 4.525201002276e+06 1.000000000000e+00 5.359766545483e+01 -6.609170201692e-04 1.051803738100e-02 -1.196700512810e+06 2.806420286227e+03 4.177403927531e+06 -6.110235008892e+06 1.789717009981e-04 9.797872473541e-08 8.246729696226e-04 0.000000000000e+00 1.043177198057e+06 8.912333642825e+06  7.513476434003e-04
1.000000000000e+03 4.529391016052e+06 1.000000000000e+00 5.327750890172e+01 -6.540797930591e-04 1.043853720853e-02 -1.194685499409e+06 2.805104356528e+03 4.136137717203e+06 -6.010029525016e+06 1.753246263805e-04 9.788096995776e-08 8.194183066950e-04 0.000000000000e+00 1.022859102407e+06 8.790619180993e+06  7.473425628410e-04
1.100000000000e+03 4.533536316160e+06 1.000000000000e+00 5.295522875921e+01 -6.469064850340e-04 1.035536443218e-02 -1.193174007543e+06 2.806064806274e+03 4.088681669436e+06 -5.911077906029e+06 1.717054216588e-04 9.795231765319e-08 8.139803076441e-04 0.000000000000e+00 1.005190081379e+06 8.664636616699e+06  7.431567061512e-04
1.200000000000e+03 4.536797682874e+06 1.000000000000e+00 5.267854156362e+01 -6.409706133637e-04 1.028624430367e-02 -1.191483306091e+06 2.807495716362e+03 4.052429795176e+06 -5.824668711295e+06 1.685587347655e-04 9.805861383114e-08 8.094243250815e-04 0.000000000000e+00 9.879074074036e+05 8.559268479588e+06  7.396920128146e-04
1.300000000000e+03 4.539703052077e+06 1.000000000000e+00 5.241296387751e+01 -6.353377887113e-04 1.022045732445e-02 -1.189781311254e+06 2.807266400939e+03 4.018614329376e+06 -5.741413514460e+06 1.655296158341e-04 9.804157897114e-08 8.050759861836e-04 0.000000000000e+00 9.708601654462e+05 8.458809953519e+06  7.363990136970e-04
1.400000000000e+03 4.542442562524e+06 1.000000000000e+00 5.214108536129e+01 -6.295346349202e-04 1.015248020989e-02 -1.188169975739e+06 2.806357083232e+03 3.982627355481e+06 -5.656631667290e+06 1.624404254012e-04 9.797402965578e-08 8.005902871155e-04 0.000000000000e+00 9.540580958492e+05 8.355227605856e+06  7.329962493859e-04
1.500000000000e+03 4.545082446453e+06 1.000000000000e+00 5.185283515601e+01 -6.232877069849e-04 1.007909409951e-02 -1.186716688712e+06 2.806522662872e+03 3.941721836148e+06 -5.567642701338e+06 1.591891001840e-04 9.798632985760e-08 7.957656348049e-04 0.000000000000e+00 9.375458513005e+05 8.243829680361e+06  7.293194969257e-04
1.600000000000e+03 4.547643486991e+06 1.000000000000e+00 5.154207102440e+01 -6.164303434343e-04 9.998325270947e-03 -1.185468408055e+06 2.806806923563e+03 3.894168161738e+06 -5.472829806075e+06 1.557138430701e-04 9.800744636607e-08 7.904777336456e-04 0.000000000000e+00 9.213766841308e+05 8.121726221574e+06  7.252679169536e-04
1.700000000000e+03 4.550130771774e+06 1.000000000000e+00 5.120500160924e+01 -6.088592573188e-04 9.908952132228e-03 -1.184455832467e+06 2.807019655659e+03 3.838887737604e+06 -5.371198795835e+06 1.519765869259e-04 9.802324932178e-08 7.846495946546e-04 0.000000000000e+00 9.055889635660e+05 7.987131478005e+06  7.207798074742e-04
1.800000000000e+03 4.552544175197e+06 1.000000000000e+00 5.083933862658e+01 -6.005125193267e-04 9.810237725560e-03 -1.183697092522e+06 2.808940538173e+03 3.775226148493e+06 -5.262150535849e+06 1.479544047529e-04 9.816594345137e-08 7.782346574024e-04 0.000000000000e+00 8.902071599593e+05 7.838970814949e+06  7.158187419198e-04
1.900000000000e+03 4.554883463306e+06 1.000000000000e+00 5.044379528665e+01 -5.913547870245e-04 9.701767165379e-03 -1.183208079605e+06 2.808023622002e+03 3.702785195427e+06 -5.145358877387e+06 1.436345922041e-04 9.809782967868e-08 7.712060175457e-04 0.000000000000e+00 8.752605871883e+05 7.676629145376e+06  7.103645434637e-04
2.000000000000e+03 4.557147803230e+06 1.000000000000e+00 5.001776937061e+01 -5.813700452165e-04 9.583347816876e-03 -1.182985186216e+06 2.807985504331e+03 3.621429246370e+06 -5.020652651604e+06 1.390109255723e-04 9.809499808026e-08 7.635522796230e-04 0.000000000000e+00 8.607361971497e+05 7.499857213805e+06  7.044104207780e-04