 TITLE = "Time curves in points"
 VARIABLES = "TIME"  "PRESSURE1"  "SATURATION1"  "TEMPERATURE1"  "DISPLACEMENT_X1"  "DISPLACEMENT_Y1"  "STRESS_XX"  "STRESS_XY"  "STRESS_YY"  "STRESS_ZZ"  "STRAIN_XX"  "STRAIN_XY"  "STRAIN_YY"  "STRAIN_PLS"  p_(1st_Invariant)  q_(2nd_Invariant)   Effective_Strain
 ZONE T="POINT=POINT18"
0.000000000000e+00 1.000000000000e+05 1.000000000000e+00 2.500000000000e+01 0.000000000000e+00 0.000000000000e+00 -3.130685851467e+07 -1.409868786187e+04 -1.352808692198e+07 -1.044743363099e+07 0.000000000000e+00 0.000000000000e+00 0.000000000000e+00 0.000000000000e+00 1.842745968921e+07 1.950246065449e+07  0.000000000000e+00
1.000000000000e-03 3.083650975032e+05 1.000000000000e+00 2.500000000001e+01 -8.656443589087e-05 6.303344102338e-05 -3.055887289075e+07 -1.351243580834e+04 -1.354846211573e+07 -1.022915050195e+07 1.967466409546e-05 4.355015254823e-08 -8.864451989505e-06 0.000000000000e+00 1.811216183614e+07 1.889008486277e+07  2.529983639225e-05
2.000000000000e-03 3.159662236194e+05 1.000000000000e+00 2.499999999999e+01 -8.627098540732e-05 6.240436070994e-05 -3.056072644612e+07 -1.356074131786e+04 -1.354807108425e+07 -1.022958925911e+07 1.962211444764e-05 3.996174326941e-08 -8.833631268644e-06 0.000000000000e+00 1.811279559650e+07 1.889178401799e+07  2.522696437051e-05
3.000000000000e-03 3.211188780102e+05 1.000000000000e+00 2.499999999994e+01 -8.605313204842e-05 6.190673321274e-05 -3.056231192124e+07 -1.358837520009e+04 -1.354818418151e+07 -1.023009883081e+07 1.958215232044e-05 3.790894058941e-08 -8.818905074989e-06 0.000000000000e+00 1.811353164452e+07 1.889299116282e+07  2.517799098347e-05
4.000000000000e-03 3.246193144673e+05 1.000000000000e+00 2.499999999989e+01 -8.588191109943e-05 6.138358268454e-05 -3.056388825690e+07 -1.360797639907e+04 -1.354894907026e+07 -1.023080119812e+07 1.954969063889e-05 3.645285152258e-08 -8.821227300302e-06 0.000000000000e+00 1.811454617509e+07 1.889383234323e+07  2.514877146834e-05
1.000000000000e-02 3.282314722730e+05 1.000000000000e+00 2.499999999993e+01 -8.497010056526e-05 5.856296808877e-05 -3.057518968381e+07 -1.367012004813e+04 -1.355757361670e+07 -1.023677899013e+07 1.935195562820e-05 3.183646616379e-08 -8.919535321826e-06 0.000000000000e+00 1.812318076354e+07 1.889813488598e+07  2.503337351311e-05
2.000000000000e-02 3.208567319346e+05 1.000000000000e+00 2.499999999933e+01 -8.287626619143e-05 5.672189388891e-05 -3.059677858079e+07 -1.373061090726e+04 -1.356534651893e+07 -1.024558753006e+07 1.887725665205e-05 2.734285948574e-08 -8.881068778864e-06 0.000000000000e+00 1.813590420993e+07 1.891114203563e+07  2.455354676907e-05
3.000000000000e-02 3.082161506978e+05 1.000000000000e+00 2.499999999162e+01 -8.028934535550e-05 5.706004692981e-05 -3.062007019296e+07 -1.377114238423e+04 -1.356671469589e+07 -1.025298546968e+07 1.828692024328e-05 2.433194976776e-08 -8.657106165541e-06 0.000000000000e+00 1.814659011951e+07 1.892903871153e+07  2.382583734653e-05
4.000000000000e-02 2.933783051644e+05 1.000000000000e+00 2.499999997201e+01 -7.735997817793e-05 5.973256091217e-05 -3.064346813202e+07 -1.380194642782e+04 -1.356121581288e+07 -1.025835521584e+07 1.761730165006e-05 2.204364938652e-08 -8.253414224815e-06 0.000000000000e+00 1.815434638691e+07 1.895080742324e+07  2.288869829423e-05
5.000000000000e-02 2.780736820855e+05 1.000000000000e+00 2.500000001342e+01 -7.419855848782e-05 6.340838065435e-05 -3.066756564986e+07 -1.382580497402e+04 -1.355254277127e+07 -1.026298272432e+07 1.689412987366e-05 2.027130024051e-08 -7.759393792934e-06 0.000000000000e+00 1.816103038181e+07 1.897489610933e+07  2.183367251466e-05
6.000000000000e-02 2.627155773505e+05 1.000000000000e+00 2.500000052208e+01 -7.088080686283e-05 6.940151377547e-05 -3.069021515547e+07 -1.384488227676e+04 -1.353726806232e+07 -1.026519581246e+07 1.613506293913e-05 1.885412917992e-08 -7.109847044039e-06 0.000000000000e+00 1.816422634342e+07 1.900148173216e+07  2.063029512676e-05
7.000000000000e-02 2.481634074329e+05 1.000000000000e+00 2.500000277821e+01 -6.745575647983e-05 7.541248431241e-05 -3.071366554414e+07 -1.385951596991e+04 -1.352164245099e+07 -1.026754522523e+07 1.535131240556e-05 1.776705483174e-08 -6.442203291593e-06 0.000000000000e+00 1.816761774012e+07 1.902892266265e+07  1.939231801867e-05
8.000000000000e-02 2.350358405647e+05 1.000000000000e+00 2.500000978467e+01 -6.395168194325e-05 8.220956392636e-05 -3.073685995562e+07 -1.387161742899e+04 -1.350378756380e+07 -1.026915209736e+07 1.454948951546e-05 1.686808929973e-08 -5.719337945368e-06 0.000000000000e+00 1.816993320560e+07 1.905741155252e+07  1.810007659549e-05
9.000000000000e-02 2.242466096956e+05 1.000000000000e+00 2.500002732127e+01 -6.038560071590e-05 8.839169043666e-05 -3.076124892436e+07 -1.388201188357e+04 -1.348743326778e+07 -1.027157350988e+07 1.373355171310e-05 1.609592981703e-08 -5.021954485225e-06 0.000000000000e+00 1.817341856734e+07 1.908604747154e+07  1.681667382001e-05
1.000000000000e-01 2.168159511738e+05 1.000000000000e+00 2.500006500422e+01 -5.677511182455e-05 9.392731985058e-05 -3.078672464431e+07 -1.389081927606e+04 -1.347269120030e+07 -1.027481518551e+07 1.290771578101e-05 1.544166637438e-08 -4.353986884294e-06 0.000000000000e+00 1.817807701004e+07 1.911467698500e+07  1.554886069858e-05
2.000000000000e-01 2.303831336223e+05 1.000000000000e+00 2.502521613301e+01 -2.057569339649e-05 1.887323815254e-04 -3.099931690541e+07 -1.394671962419e+04 -1.322537926189e+07 -1.027431007079e+07 4.992670393420e-06 1.128906908468e-08 4.813123709914e-06 0.000000000000e+00 1.816633541270e+07 1.941840292207e+07  4.905401062824e-06
3.000000000000e-01 2.537529211143e+05 1.000000000000e+00 2.508846255123e+01 1.414173652158e-05 2.983912477770e-04 -3.119327551774e+07 -1.396793746536e+04 -1.295909830381e+07 -1.027679669187e+07 -2.119146424461e-06 9.712886598245e-09 1.479591950732e-05 0.000000000000e+00 1.814305683781e+07 1.971268903142e+07  1.596136017313e-05
4.000000000000e-01 2.776673655254e+05 1.000000000000e+00 2.519166899207e+01 4.623411545443e-05 4.038123122839e-04 -3.138549676433e+07 -1.396462154785e+04 -1.272879011519e+07 -1.030411546411e+07 -8.244095471744e-06 9.959211898989e-09 2.436492091092e-05 0.000000000000e+00 1.813946744788e+07 1.997970917888e+07  2.936803556337e-05
5.000000000000e-01 3.004748788690e+05 1.000000000000e+00 2.533019854542e+01 7.525679783778e-05 5.062270876108e-04 -3.157302619113e+07 -1.395269935275e+04 -1.253014407768e+07 -1.035211485556e+07 -1.342663964173e-05 1.084486067761e-08 3.352603684363e-05 0.000000000000e+00 1.815176170812e+07 2.022008180570e+07  4.188570360704e-05
6.000000000000e-01 3.218614494203e+05 1.000000000000e+00 2.549725448594e+01 1.010864768370e-04 6.060822744674e-04 -3.175459892229e+07 -1.394253637338e+04 -1.235892921055e+07 -1.041652161234e+07 -1.777851869017e-05 1.159982485971e-08 4.227769716034e-05 0.000000000000e+00 1.817668324839e+07 2.043623816283e+07  5.343327275030e-05
7.000000000000e-01 3.419029718716e+05 1.000000000000e+00 2.568619544022e+01 1.238125331444e-04 7.035620165117e-04 -3.192981586165e+07 -1.393965722190e+04 -1.221113297462e+07 -1.049354252431e+07 -2.142579970741e-05 1.181370468359e-08 5.062804836803e-05 0.000000000000e+00 1.821149712019e+07 2.063118455435e+07  6.408596583699e-05
8.000000000000e-01 3.608791266502e+05 1.000000000000e+00 2.589140848086e+01 1.436054703664e-04 7.988312660994e-04 -3.209833756363e+07 -1.394490839077e+04 -1.208308019496e+07 -1.057993631187e+07 -2.447626510037e-05 1.142361785359e-08 5.859320657883e-05 0.000000000000e+00 1.825378469016e+07 2.080760351725e+07  7.393507056366e-05
9.000000000000e-01 3.787396599702e+05 1.000000000000e+00 2.610845597502e+01 1.607885129156e-04 8.918567090788e-04 -3.226105323811e+07 -1.395729455835e+04 -1.197199015984e+07 -1.067355631358e+07 -2.704267580300e-05 1.050350254733e-08 6.619672223285e-05 0.000000000000e+00 1.830219990384e+07 2.096846684131e+07  8.308699765002e-05
1.000000000000e+00 3.955977645806e+05 1.000000000000e+00 2.633393804572e+01 1.756351404193e-04 9.826960969998e-04 -3.241828870834e+07 -1.397526396934e+04 -1.187539142200e+07 -1.077256978491e+07 -2.920520719099e-05 9.168632017029e-09 7.346231857313e-05 0.000000000000e+00 1.835541663842e+07 2.111593194771e+07  9.162499039051e-05
2.000000000000e+00 5.149665954152e+05 1.000000000000e+00 2.860504934090e+01 2.296286716669e-04 1.735801636118e-03 -3.367403251379e+07 -1.414939242216e+04 -1.146706737239e+07 -1.182871094389e+07 -3.661901977410e-05 -3.766624478187e-09 1.278567406064e-04 0.000000000000e+00 1.898993694336e+07 2.202838353793e+07  1.495669993107e-04
3.000000000000e+00 6.107908547480e+05 1.000000000000e+00 3.068793575749e+01 2.463490820600e-04 2.378437862501e-03 -3.471976947940e+07 -1.424876122852e+04 -1.127951526167e+07 -1.281735335678e+07 -3.873967458940e-05 -1.114830723679e-08 1.715439657692e-04 0.000000000000e+00 1.960554603262e+07 2.271043277846e+07  1.938392436109e-04
4.000000000000e+00 6.926790828174e+05 1.000000000000e+00 3.254714256667e+01 2.485589933861e-04 2.938758816587e-03 -3.561277526496e+07 -1.429661975354e+04 -1.118338016253e+07 -1.370743923624e+07 -3.884812824441e-05 -1.470351195231e-08 2.081750306888e-04 0.000000000000e+00 2.016786488791e+07 2.327027279781e+07  2.300722308503e-04
5.000000000000e+00 7.655375597292e+05 1.000000000000e+00 3.419873240653e+01 2.454376955812e-04 3.436085574940e-03 -3.638974987673e+07 -1.431728880716e+04 -1.112572425185e+07 -1.450091362056e+07 -3.823527955001e-05 -1.623892736402e-08 2.397884416455e-04 0.000000000000e+00 2.067212924971e+07 2.375694926340e+07  2.610149655467e-04
6.000000000000e+00 8.320211099392e+05 1.000000000000e+00 3.567425607040e+01 2.409387835715e-04 3.884839482913e-03 -3.707892402631e+07 -1.432486829639e+04 -1.108312944938e+07 -1.521075254102e+07 -3.746773091720e-05 -1.680197513534e-08 2.677359799258e-04 0.000000000000e+00 2.112426867224e+07 2.419748709467e+07  2.883016585220e-04
7.000000000000e+00 8.939905866821e+05 1.000000000000e+00 3.699910636200e+01 2.355996379970e-04 4.292070363549e-03 -3.769216726525e+07 -1.432669174913e+04 -1.105110135419e+07 -1.584817856031e+07 -3.656951336135e-05 -1.693743162464e-08 2.926014184636e-04 0.000000000000e+00 2.153048239325e+07 2.459592869424e+07  3.124951387415e-04
8.000000000000e+00 9.520501174297e+05 1.000000000000e+00 3.820238464614e+01 2.308868224908e-04 4.667501998341e-03 -3.825000907814e+07 -1.432620254744e+04 -1.102009536267e+07 -1.642679662396e+07 -3.579782404737e-05 -1.690109092760e-08 3.152445976558e-04 0.000000000000e+00 2.189896702159e+07 2.496952595406e+07  3.345828926491e-04
9.000000000000e+00 1.007100602145e+06 1.000000000000e+00 3.930487940225e+01 2.265391419689e-04 5.015626668777e-03 -3.876064476146e+07 -1.432460411628e+04 -1.099102164010e+07 -1.695661209401e+07 -3.508543196874e-05 -1.678235032752e-08 3.360033390964e-04 0.000000000000e+00 2.223609283186e+07 2.531953109257e+07  3.548493406509e-04
1.000000000000e+01 1.059639328500e+06 1.000000000000e+00 4.032136345218e+01 2.224030582435e-04 5.339804362434e-03 -3.923050267825e+07 -1.432297771909e+04 -1.096412606651e+07 -1.744477862232e+07 -3.440539782653e-05 -1.666153225048e-08 3.551342171668e-04 0.000000000000e+00 2.254646912236e+07 2.564766956112e+07  3.735272124739e-04
1.100000000000e+01 1.109958607663e+06 1.000000000000e+00 4.126486655125e+01 2.185783435336e-04 5.643646177947e-03 -3.966619151036e+07 -1.432157905090e+04 -1.093790498560e+07 -1.789739449075e+07 -3.377667933476e-05 -1.655763118491e-08 3.729195895704e-04 0.000000000000e+00 2.283383032890e+07 2.595795345503e+07  3.909039147531e-04
1.200000000000e+01 1.158421793445e+06 1.000000000000e+00 4.214452605975e+01 2.148769289384e-04 5.929133356416e-03 -4.007120929653e+07 -1.432011180644e+04 -1.091310176195e+07 -1.831891446470e+07 -3.316374093159e-05 -1.644863588249e-08 3.894973083386e-04 0.000000000000e+00 2.310107517439e+07 2.625076053785e+07  4.070935710062e-04
1.300000000000e+01 1.205272616906e+06 1.000000000000e+00 4.296703503321e+01 2.112090456416e-04 6.197855077014e-03 -4.044844392478e+07 -1.431861867211e+04 -1.088993765964e+07 -1.871260167948e+07 -3.255264486066e-05 -1.633771733181e-08 4.049803572593e-04 0.000000000000e+00 2.335032775463e+07 2.652684897650e+07  4.221989424423e-04
1.400000000000e+01 1.251216455202e+06 1.000000000000e+00 4.373767243583e+01 2.075276798208e-04 6.451351652135e-03 -4.080000614455e+07 -1.431748800179e+04 -1.086785349506e+07 -1.908076314727e+07 -3.193610136228e-05 -1.625372467948e-08 4.194751950328e-04 0.000000000000e+00 2.358287426229e+07 2.678723943881e+07  4.363207042510e-04
1.500000000000e+01 1.295792100644e+06 1.000000000000e+00 4.446078840889e+01 2.038209633275e-04 6.690557532436e-03 -4.112822351573e+07 -1.431645920270e+04 -1.084731729372e+07 -1.942575727874e+07 -3.131296455163e-05 -1.617729960445e-08 4.330520359658e-04 0.000000000000e+00 2.380043269606e+07 2.703258390106e+07  4.495272087866e-04
1.600000000000e+01 1.339136786131e+06 1.000000000000e+00 4.514006400343e+01 2.001013421813e-04 6.916484549417e-03 -4.143499606639e+07 -1.431568712177e+04 -1.082816213977e+07 -1.974939108089e+07 -3.068668949660e-05 -1.611994502062e-08 4.457841971923e-04 0.000000000000e+00 2.400418309568e+07 2.726383412190e+07  4.618926990113e-04
1.700000000000e+01 1.381375852790e+06 1.000000000000e+00 4.577866393607e+01 1.963891381361e-04 7.130022977778e-03 -4.172201826807e+07 -1.431470353014e+04 -1.081021246606e+07 -2.005322721147e+07 -3.006217213711e-05 -1.604687821393e-08 4.577362413519e-04 0.000000000000e+00 2.419515264853e+07 2.748191036704e+07  4.734836293833e-04
1.800000000000e+01 1.422627619002e+06 1.000000000000e+00 4.637933922130e+01 1.926860929173e-04 7.331958515606e-03 -4.199062111527e+07 -1.431398637270e+04 -1.079332339046e+07 -2.033858396057e+07 -2.943988435242e-05 -1.599360366165e-08 4.689625148405e-04 0.000000000000e+00 2.437417615543e+07 2.768750013067e+07  4.843539512444e-04
1.900000000000e+01 1.462978505612e+06 1.000000000000e+00 4.694450207357e+01 1.889930284810e-04 7.522983101422e-03 -4.224197040258e+07 -1.431365488104e+04 -1.077738138767e+07 -2.060662101042e+07 -2.882005317240e-05 -1.596897856651e-08 4.795103082243e-04 0.000000000000e+00 2.454199093356e+07 2.788121129043e+07  4.945505479756e-04
2.000000000000e+01 1.502511515246e+06 1.000000000000e+00 4.747628208160e+01 1.852720648360e-04 7.703715284393e-03 -4.247676473239e+07 -1.431311882058e+04 -1.076230848112e+07 -2.085826968985e+07 -2.819403447203e-05 -1.592915693241e-08 4.894171099895e-04 0.000000000000e+00 2.469911430112e+07 2.806328317516e+07  5.041057971911e-04
2.100000000000e+01 1.541145240779e+06 1.000000000000e+00 4.798007753883e+01 1.819778393537e-04 7.876430766278e-03 -4.269988793303e+07 -1.431281259179e+04 -1.074543235170e+07 -2.109611710460e+07 -2.764713509081e-05 -1.590640850827e-08 4.988782702014e-04 0.000000000000e+00 2.484714579644e+07 2.823958258809e+07  5.132606046123e-04
2.200000000000e+01 1.579015741750e+06 1.000000000000e+00 4.845889970862e+01 1.788966565893e-04 8.041534146358e-03 -4.291170466865e+07 -1.431243954661e+04 -1.072811849625e+07 -2.132172494874e+07 -2.713489391739e-05 -1.587869658016e-08 5.079010761864e-04 0.000000000000e+00 2.498718270455e+07 2.840894374989e+07  5.219977473500e-04
2.300000000000e+01 1.616198747255e+06 1.000000000000e+00 4.891434428171e+01 1.758659191782e-04 8.199308897272e-03 -4.311212481407e+07 -1.431235993553e+04 -1.071103589466e+07 -2.153581260932e+07 -2.662724335443e-05 -1.587278261479e-08 5.164874002095e-04 0.000000000000e+00 2.511965777268e+07 2.857048154569e+07  5.303026316308e-04
2.400000000000e+01 1.652747634694e+06 1.000000000000e+00 4.934749424628e+01 1.728555998782e-04 8.350021675593e-03 -4.330166322806e+07 -1.431199415245e+04 -1.069439791692e+07 -2.173897110409e+07 -2.612135463955e-05 -1.584561015715e-08 5.246512691887e-04 0.000000000000e+00 2.524501074969e+07 2.872426908200e+07  5.381875900161e-04
2.500000000000e+01 1.688709041501e+06 1.000000000000e+00 4.975924366770e+01 1.698511235113e-04 8.493931492558e-03 -4.348073015870e+07 -1.431157798370e+04 -1.067826425707e+07 -2.193165158125e+07 -2.561570862590e-05 -1.581469476454e-08 5.324072228488e-04 0.000000000000e+00 2.536354866567e+07 2.887043913729e+07  5.456662024637e-04
2.600000000000e+01 1.724117702420e+06 1.000000000000e+00 5.015039919327e+01 1.668538030088e-04 8.631284125050e-03 -4.364976856190e+07 -1.431108004295e+04 -1.066263699640e+07 -2.211426876302e+07 -2.511135399351e-05 -1.577770488034e-08 5.397705878538e-04 0.000000000000e+00 2.547555810710e+07 2.900922008145e+07  5.527542298934e-04
2.700000000000e+01 1.759000565616e+06 1.000000000000e+00 5.052171312793e+01 1.638626301542e-04 8.762316581360e-03 -4.380914815293e+07 -1.431106705299e+04 -1.064749744541e+07 -2.228719081429e+07 -2.460834832747e-05 -1.577673991187e-08 5.467557330805e-04 0.000000000000e+00 2.558127880421e+07 2.914080829263e+07  5.594659585178e-04
2.800000000000e+01 1.793393816959e+06 1.000000000000e+00 5.087389425851e+01 1.608813557625e-04 8.887247772799e-03 -4.395925313162e+07 -1.431097349844e+04 -1.063282927946e+07 -2.245077598412e+07 -2.410765551378e-05 -1.576979014491e-08 5.533765712666e-04 0.000000000000e+00 2.568095279840e+07 2.926542507052e+07  5.658157130875e-04
2.900000000000e+01 1.827321713300e+06 1.000000000000e+00 5.120761155030e+01 1.579117896268e-04 9.006286297961e-03 -4.410042624423e+07 -1.431072246649e+04 -1.061861054259e+07 -2.260535455925e+07 -2.360973833420e-05 -1.575114205740e-08 5.596461857126e-04 0.000000000000e+00 2.577479711536e+07 2.938327202953e+07  5.718167308461e-04
3.000000000000e+01 1.860797199142e+06 1.000000000000e+00 5.152349587251e+01 1.549525199405e-04 9.119633919710e-03 -4.423295735952e+07 -1.431034235072e+04 -1.060481012497e+07 -2.275122492224e+07 -2.311428056240e-05 -1.572290488551e-08 5.655768147067e-04 0.000000000000e+00 2.586299746891e+07 2.949452267861e+07  5.774809998745e-04
3.100000000000e+01 1.893732279346e+06 1.000000000000e+00 5.182491728892e+01 1.523507932362e-04 9.228840004411e-03 -4.436017430062e+07 -1.431026673134e+04 -1.058936814500e+07 -2.288997419577e+07 -2.268593678654e-05 -1.571728744633e-08 5.713039184081e-04 0.000000000000e+00 2.594650554713e+07 2.960357224105e+07  5.829780306636e-04
3.200000000000e+01 1.926195228653e+06 1.000000000000e+00 5.211348175194e+01 1.499318238724e-04 9.334011236234e-03 -4.448194066016e+07 -1.431019540370e+04 -1.057339822085e+07 -2.302244877921e+07 -2.228820275582e-05 -1.571198882110e-08 5.768175715471e-04 0.000000000000e+00 2.602592922007e+07 2.970925050082e+07  5.882784226503e-04
3.300000000000e+01 1.958216312017e+06 1.000000000000e+00 5.238977686616e+01 1.475986757971e-04 9.435206207862e-03 -4.459810216434e+07 -1.431014162864e+04 -1.055737107747e+07 -2.314893923086e+07 -2.190455613595e-05 -1.570799410292e-08 5.821110822194e-04 0.000000000000e+00 2.610147082423e+07 2.981096090969e+07  5.933666718313e-04
3.400000000000e+01 1.989826557743e+06 1.000000000000e+00 5.265406913218e+01 1.453084016247e-04 9.532452045332e-03 -4.470863975583e+07 -1.431026451741e+04 -1.054154135647e+07 -2.326960440049e+07 -2.152838894783e-05 -1.571712298288e-08 5.871808924431e-04 0.000000000000e+00 2.617326183760e+07 2.990842412728e+07  5.982356821164e-04
3.500000000000e+01 2.021050753060e+06 1.000000000000e+00 5.290654827274e+01 1.430630555026e-04 9.625812165757e-03 -4.481373588545e+07 -1.431012023305e+04 -1.052595049786e+07 -2.338457572000e+07 -2.116159618013e-05 -1.570640471589e-08 5.920303447732e-04 0.000000000000e+00 2.624142070110e+07 3.000172164612e+07  6.028897495460e-04
3.600000000000e+01 2.051917486790e+06 1.000000000000e+00 5.314739705556e+01 1.408778207258e-04 9.715335480666e-03 -4.491365788389e+07 -1.431018740501e+04 -1.051064873674e+07 -2.349401158946e+07 -2.080822382817e-05 -1.571139463330e-08 5.966634567660e-04 0.000000000000e+00 2.630610607003e+07 3.009100551171e+07  6.073349737318e-04
3.700000000000e+01 2.082465090559e+06 1.000000000000e+00 5.337680899173e+01 1.388270047791e-04 9.801090644694e-03 -4.500914035033e+07 -1.430969238302e+04 -1.049558070765e+07 -2.359818319831e+07 -2.048548425280e-05 -1.567462157085e-08 6.010923576040e-04 0.000000000000e+00 2.636763475209e+07 3.017693080821e+07  6.115924674146e-04
3.800000000000e+01 2.113459430656e+06 1.000000000000e+00 5.359503145959e+01 1.394293617030e-04 9.883178842750e-03 -4.512148074993e+07 -1.431181496432e+04 -1.047851977748e+07 -2.370289864629e+07 -2.076869674142e-05 -1.583229903883e-08 6.056154802209e-04 0.000000000000e+00 2.643429972457e+07 3.028015711405e+07  6.162623578072e-04
3.900000000000e+01 2.143157947788e+06 1.000000000000e+00 5.380220945236e+01 1.364380609507e-04 9.961652739030e-03 -4.519816689466e+07 -1.431169282898e+04 -1.046483088516e+07 -2.379406362828e+07 -2.023091135743e-05 -1.582322612794e-08 6.095100526953e-04 0.000000000000e+00 2.648568713603e+07 3.034971121324e+07  6.198731634050e-04
4.000000000000e+01 2.172544101843e+06 1.000000000000e+00 5.399853564823e+01 1.334646341322e-04 1.003659620672e-02 -4.526969843106e+07 -1.431131072162e+04 -1.045138752338e+07 -2.387995763479e+07 -1.969744818202e-05 -1.579484100951e-08 6.131997263745e-04 0.000000000000e+00 2.653368119641e+07 3.041515666500e+07  6.232819301685e-04
4.200000000000e+01 2.229827605392e+06 1.000000000000e+00 5.435979749961e+01 1.282867045823e-04 1.017694195111e-02 -4.540125981360e+07 -1.431102532923e+04 -1.042140970571e+07 -2.403644336496e+07 -1.877168669870e-05 -1.577364043195e-08 6.201255152942e-04 0.000000000000e+00 2.661970429476e+07 3.054026576365e+07  6.297212348125e-04
4.400000000000e+01 2.285593809494e+06 1.000000000000e+00 5.469232340847e+01 1.233681085615e-04 1.030778152181e-02 -4.552005690578e+07 -1.431057172574e+04 -1.039111975384e+07 -2.417897290158e+07 -1.789019590546e-05 -1.573994417274e-08 6.265445248670e-04 0.000000000000e+00 2.669671652040e+07 3.065607782381e+07  6.356784610060e-04
5.000000000000e+01 2.437116678573e+06 1.000000000000e+00 5.537568902663e+01 1.093902220853e-04 1.058148195954e-02 -4.573902366630e+07 -1.430939958741e+04 -1.033129178943e+07 -2.446469005556e+07 -1.541089557657e-05 -1.565287103992e-08 6.393790578357e-04 0.000000000000e+00 2.684500183710e+07 3.087117524769e+07  6.472221256497e-04
6.500000000000e+01 2.768502507756e+06 1.000000000000e+00 5.631601671699e+01 8.301030022749e-05 1.104582158958e-02 -4.593597195759e+07 -1.430710410982e+04 -1.011762186769e+07 -2.478648377927e+07 -1.077377951543e-05 -1.548234984756e-08 6.592677075238e-04 0.000000000000e+00 2.694669253485e+07 3.118839360490e+07  6.647200840582e-04
8.000000000000e+01 3.023556374630e+06 1.000000000000e+00 5.663892276941e+01 6.347334413412e-05 1.126618835588e-02 -4.589966402567e+07 -1.430558281075e+04 -9.966383834392e+06 -2.484146340613e+07 -7.383098760865e-06 -1.536933905954e-08 6.669272206154e-04 0.000000000000e+00 2.690250375540e+07 3.127233329000e+07  6.706492510917e-04
1.000000000000e+02 3.324236305531e+06 1.000000000000e+00 5.678999648608e+01 4.525345026544e-05 1.145067467764e-02 -4.577307327328e+07 -1.430390333781e+04 -9.782726247852e+06 -2.479960143404e+07 -4.236029778125e-06 -1.524457821271e-08 6.721939148663e-04 0.000000000000e+00 2.678513365172e+07 3.131053630944e+07  6.743219092309e-04
1.860000000000e+02 3.922717201764e+06 1.000000000000e+00 5.651449251528e+01 1.200429217292e-05 1.167000306390e-02 -4.520865750392e+07 -1.430115996253e+04 -9.307841252473e+06 -2.438826959322e+07 1.449944710546e-06 -1.504078462043e-08 6.745544606072e-04 0.000000000000e+00 2.630158944987e+07 3.122321016769e+07  6.738306587498e-04
2.720000000000e+02 4.213038211969e+06 1.000000000000e+00 5.565873606520e+01 -2.753741500015e-06 1.150191364938e-02 -4.463049303344e+07 -1.429983641236e+04 -9.181088683621e+06 -2.387576967294e+07 3.888913717847e-06 -1.494246375073e-08 6.602267018399e-04 0.000000000000e+00 2.589578379667e+07 3.084926001396e+07  6.582908608392e-04
3.580000000000e+02 4.354403691727e+06 1.000000000000e+00 5.491489359026e+01 -1.078039790442e-05 1.132602087633e-02 -4.417579399611e+07 -1.429906090064e+04 -9.107098647801e+06 -2.345595309281e+07 5.184547842539e-06 -1.488485430823e-08 6.473817159083e-04 0.000000000000e+00 2.557961524557e+07 3.053699437693e+07  6.448050750536e-04
4.440000000000e+02 4.426532453840e+06 1.000000000000e+00 5.428892171093e+01 -1.593280656911e-05 1.116143212618e-02 -4.381569511039e+07 -1.429856962606e+04 -9.072228710731e+06 -2.311779217031e+07 5.999386476264e-06 -1.484835962500e-08 6.361166221636e-04 0.000000000000e+00 2.533523866381e+07 3.027202275347e+07  6.331382478038e-04
5.300000000000e+02 4.465496889446e+06 1.000000000000e+00 5.377628730845e+01 -1.939489282977e-05 1.101878564612e-02 -4.353151392687e+07 -1.429818519447e+04 -9.056751538080e+06 -2.284806728719e+07 6.536334776908e-06 -1.481980185015e-08 6.266731357748e-04 0.000000000000e+00 2.514544425071e+07 3.005424947807e+07  6.234306681756e-04
6.160000000000e+02 4.488012314786e+06 1.000000000000e+00 5.336723440721e+01 -2.173648145226e-05 1.090056150591e-02 -4.331077006131e+07 -1.429796648876e+04 -9.051806524958e+06 -2.263690742945e+07 6.892312210150e-06 -1.480355514040e-08 6.190137272604e-04 0.000000000000e+00 2.499982800524e+07 2.988010518625e+07  6.155965101357e-04
7.020000000000e+02 4.501822576458e+06 1.000000000000e+00 5.305914939446e+01 -2.333941668214e-05 1.080987440993e-02 -4.314687585090e+07 -1.429785755889e+04 -9.051063475705e+06 -2.247948701327e+07 7.132767424566e-06 -1.479546320702e-08 6.131942822033e-04 0.000000000000e+00 2.489247544662e+07 2.974885853413e+07  6.096591937744e-04
7.880000000000e+02 4.511441113274e+06 1.000000000000e+00 5.280011577809e+01 -2.431087629340e-05 1.072815288300e-02 -4.301595066078e+07 -1.429763996931e+04 -9.060541708807e+06 -2.235225764575e+07 7.270040835349e-06 -1.477929940971e-08 6.081165713229e-04 0.000000000000e+00 2.480958333844e+07 2.963637077307e+07  6.045143390858e-04
8.740000000000e+02 4.519827167133e+06 1.000000000000e+00 5.241140012956e+01 -2.632737574699e-05 1.061262587436e-02 -4.280898250729e+07 -1.429746240889e+04 -9.059121506680e+06 -2.215343812414e+07 7.572704304905e-06 -1.476610920692e-08 6.007845965992e-04 0.000000000000e+00 2.467384737937e+07 2.947174057897e+07  5.970342652767e-04
9.370000000000e+02 4.525201002276e+06 1.000000000000e+00 5.210910113965e+01 -2.720749775280e-05 1.051767036159e-02 -4.265574494454e+07 -1.429724737074e+04 -9.065157502216e+06 -2.200333993323e+07 7.689309544897e-06 -1.475013494471e-08 5.949853268169e-04 0.000000000000e+00 2.457474745999e+07 2.934490746754e+07  5.911781786474e-04
1.000000000000e+03 4.529391016052e+06 1.000000000000e+00 5.185431647067e+01 -2.766067589857e-05 1.043816922984e-02 -4.252706214926e+07 -1.429744510321e+04 -9.066802747995e+06 -2.187596905762e+07 7.738037989827e-06 -1.476482364224e-08 5.901932994511e-04 0.000000000000e+00 2.448994465162e+07 2.924151648879e+07  5.863625759122e-04
1.100000000000e+03 4.533536316160e+06 1.000000000000e+00 5.158774882081e+01 -2.795482090586e-05 1.035499664343e-02 -4.239308358264e+07 -1.429732841830e+04 -9.067226099450e+06 -2.174253189108e+07 7.758147135395e-06 -1.475615562056e-08 5.852213373541e-04 0.000000000000e+00 2.440094719106e+07 2.913522494807e+07  5.813810884031e-04
1.200000000000e+03 4.536797682874e+06 1.000000000000e+00 5.136660247318e+01 -2.832854434013e-05 1.028587745865e-02 -4.228146911192e+07 -1.429706757753e+04 -9.068539323173e+06 -2.163196837040e+07 7.797182422851e-06 -1.473677887706e-08 5.810659154192e-04 0.000000000000e+00 2.432732560183e+07 2.904601144639e+07  5.772068241324e-04
1.300000000000e+03 4.539703052077e+06 1.000000000000e+00 5.115656252148e+01 -2.872273595807e-05 1.022008948287e-02 -4.217538341151e+07 -1.429719548124e+04 -9.070223403468e+06 -2.152706175632e+07 7.840977057861e-06 -1.474628029597e-08 5.771068324853e-04 0.000000000000e+00 2.425755619043e+07 2.896099838181e+07  5.732265662382e-04
1.400000000000e+03 4.542442562524e+06 1.000000000000e+00 5.094022060868e+01 -2.910512508200e-05 1.015211235106e-02 -4.206632118201e+07 -1.429727776167e+04 -9.072066680171e+06 -2.141910414223e+07 7.882005630232e-06 -1.475239255610e-08 5.730285136844e-04 0.000000000000e+00 2.418583066814e+07 2.887368146065e+07  5.691284478831e-04
1.500000000000e+03 4.545082446453e+06 1.000000000000e+00 5.070750636094e+01 -2.945696929161e-05 1.007872618512e-02 -4.194938146595e+07 -1.429722938538e+04 -9.073990316542e+06 -2.130307700696e+07 7.915901488253e-06 -1.474879888877e-08 5.686474850235e-04 0.000000000000e+00 2.410881626315e+07 2.878031461595e+07  5.647311456786e-04
1.600000000000e+03 4.547643486991e+06 1.000000000000e+00 5.045227779708e+01 -2.976687497786e-05 9.997957247326e-03 -4.182158373099e+07 -1.429720780853e+04 -9.075966845853e+06 -2.117592828308e+07 7.940007614066e-06 -1.474719603753e-08 5.638514041907e-04 0.000000000000e+00 2.402449295331e+07 2.867864019881e+07  5.599236250942e-04
1.700000000000e+03 4.550130771774e+06 1.000000000000e+00 5.017074371309e+01 -3.002770071115e-05 9.908584325829e-03 -4.168109200245e+07 -1.429713865842e+04 -9.077986062107e+06 -2.103577721035e+07 7.952660544061e-06 -1.474205917223e-08 5.585707934569e-04 0.000000000000e+00 2.393161842497e+07 2.856730242267e+07  5.546372263513e-04
1.800000000000e+03 4.552544175197e+06 1.000000000000e+00 4.986061592319e+01 -3.023520678072e-05 9.809870870185e-03 -4.152679735300e+07 -1.429679642978e+04 -9.080041299696e+06 -2.088148825570e+07 7.952872065240e-06 -1.471663647310e-08 5.527637234595e-04 0.000000000000e+00 2.382944230280e+07 2.844552814373e+07  5.488305053672e-04
1.900000000000e+03 4.554883463306e+06 1.000000000000e+00 4.952060770273e+01 -3.038691390721e-05 9.701399542342e-03 -4.135808196284e+07 -1.429699904010e+04 -9.082140398607e+06 -2.071242807810e+07 7.940065674936e-06 -1.473168752535e-08 5.464063789035e-04 0.000000000000e+00 2.371755014652e+07 2.831293208164e+07  5.424799292755e-04