 TITLE = "Profiles along polylines"
 VARIABLES = "DIST" "PRESSURE1" "SATURATION1" "VELOCITY_X1" "VELOCITY_Y1" "TEMPERATURE1" "DISPLACEMENT_X1" "DISPLACEMENT_Y1" "STRESS_XX" "STRESS_XY" "STRESS_YY" "STRESS_ZZ" "STRAIN_XX" "STRAIN_XY" "STRAIN_YY" "STRAIN_PLS"  p_(1st_Invariant)  q_(2nd_Invariant)   Effective_Strain
 ZONE T="TIME=0.000000000000e+00"
0.000000000000e+00 1.000000000000e+05 1.000000000000e+00 0.000000000000e+00 0.000000000000e+00 2.500000000000e+01 0.000000000000e+00 0.000000000000e+00 -3.096833482140e+07 1.077886406635e+03 -1.276457505907e+07 -1.019441292181e+07 0.000000000000e+00 0.000000000000e+00 0.000000000000e+00 0.000000000000e+00 1.797577426743e+07 1.961553518206e+07  0.000000000000e+00
2.928677190000e+00 1.000000000000e+05 1.000000000000e+00 0.000000000000e+00 0.000000000000e+00 2.500000000000e+01 0.000000000000e+00 0.000000000000e+00 -3.124521844470e+07 -4.424462380100e+03 -1.287258575701e+07 -1.029766313748e+07 0.000000000000e+00 0.000000000000e+00 0.000000000000e+00 0.000000000000e+00 1.813848911306e+07 1.978615739825e+07  0.000000000000e+00
5.000000000000e+00 1.000000000000e+05 1.000000000000e+00 0.000000000000e+00 0.000000000000e+00 2.500000000000e+01 0.000000000000e+00 0.000000000000e+00 -3.142298898784e+07 -1.384629659344e+03 -1.297921547231e+07 -1.037389995124e+07 0.000000000000e+00 0.000000000000e+00 0.000000000000e+00 0.000000000000e+00 1.825870147046e+07 1.987491649329e+07  0.000000000000e+00
6.565046960000e+00 1.000000000000e+05 1.000000000000e+00 0.000000000000e+00 0.000000000000e+00 2.500000000000e+01 0.000000000000e+00 0.000000000000e+00 -3.156600360094e+07 -3.725143533728e+03 -1.307760749187e+07 -1.043926445151e+07 0.000000000000e+00 0.000000000000e+00 0.000000000000e+00 0.000000000000e+00 1.836095851477e+07 1.993891716008e+07  0.000000000000e+00
7.950196795000e+00 1.000000000000e+05 1.000000000000e+00 0.000000000000e+00 0.000000000000e+00 2.500000000000e+01 0.000000000000e+00 0.000000000000e+00 -3.172171541269e+07 -1.054749547737e+04 -1.317482636852e+07 -1.050871502870e+07 0.000000000000e+00 0.000000000000e+00 0.000000000000e+00 0.000000000000e+00 1.846841893664e+07 2.001358658115e+07  0.000000000000e+00
9.176169591000e+00 1.000000000000e+05 1.000000000000e+00 0.000000000000e+00 0.000000000000e+00 2.500000000000e+01 0.000000000000e+00 0.000000000000e+00 -3.187999868153e+07 -3.807959427004e+03 -1.328199360566e+07 -1.058302149448e+07 0.000000000000e+00 0.000000000000e+00 0.000000000000e+00 0.000000000000e+00 1.858167126056e+07 2.008396832760e+07  0.000000000000e+00
1.026151647400e+01 1.000000000000e+05 1.000000000000e+00 0.000000000000e+00 0.000000000000e+00 2.500000000000e+01 0.000000000000e+00 0.000000000000e+00 -3.207620799022e+07 -1.170448835464e+04 -1.339894141158e+07 -1.067199211314e+07 0.000000000000e+00 0.000000000000e+00 0.000000000000e+00 0.000000000000e+00 1.871571383831e+07 2.017941796247e+07  0.000000000000e+00
1.122191314800e+01 1.000000000000e+05 1.000000000000e+00 0.000000000000e+00 0.000000000000e+00 2.500000000000e+01 0.000000000000e+00 0.000000000000e+00 -3.230584229320e+07 -2.331602220942e+03 -1.354638047761e+07 -1.078088341866e+07 0.000000000000e+00 0.000000000000e+00 0.000000000000e+00 0.000000000000e+00 1.887770206316e+07 2.028409806674e+07  0.000000000000e+00
1.207197121800e+01 1.000000000000e+05 1.000000000000e+00 0.000000000000e+00 0.000000000000e+00 2.500000000000e+01 0.000000000000e+00 0.000000000000e+00 -3.262633317467e+07 -2.960537234866e+04 -1.370638049441e+07 -1.092108631395e+07 0.000000000000e+00 0.000000000000e+00 0.000000000000e+00 0.000000000000e+00 1.908459999434e+07 2.045538404978e+07  0.000000000000e+00
1.282449932700e+01 1.000000000000e+05 1.000000000000e+00 0.000000000000e+00 0.000000000000e+00 2.500000000000e+01 0.000000000000e+00 0.000000000000e+00 -3.304132034641e+07 -1.955830627644e+04 -1.390762275569e+07 -1.110261097844e+07 0.000000000000e+00 0.000000000000e+00 0.000000000000e+00 0.000000000000e+00 1.935051802685e+07 2.067940688777e+07  0.000000000000e+00
1.349045755400e+01 1.000000000000e+05 1.000000000000e+00 0.000000000000e+00 0.000000000000e+00 2.500000000000e+01 0.000000000000e+00 0.000000000000e+00 -3.359153361348e+07 -6.296757267984e+03 -1.417550052995e+07 -1.134513739607e+07 0.000000000000e+00 0.000000000000e+00 0.000000000000e+00 0.000000000000e+00 1.970405717983e+07 2.097493359617e+07  0.000000000000e+00
1.408000000000e+01 1.000000000000e+05 1.000000000000e+00 0.000000000000e+00 0.000000000000e+00 2.500000000000e+01 0.000000000000e+00 0.000000000000e+00 -3.444049899891e+07 -5.858766693045e+04 -1.446208944789e+07 -1.168309508854e+07 0.000000000000e+00 0.000000000000e+00 0.000000000000e+00 0.000000000000e+00 2.019522784511e+07 2.150325191297e+07  0.000000000000e+00
1.465000000000e+01 1.000000000000e+05 1.000000000000e+00 0.000000000000e+00 0.000000000000e+00 2.500000000000e+01 0.000000000000e+00 0.000000000000e+00 -3.583452980825e+07 -4.128069141583e+04 -1.483252039436e+07 -1.220989351998e+07 0.000000000000e+00 0.000000000000e+00 0.000000000000e+00 0.000000000000e+00 2.095898124086e+07 2.242873419822e+07  0.000000000000e+00
1.522000000000e+01 1.000000000000e+05 1.000000000000e+00 0.000000000000e+00 0.000000000000e+00 2.500000000000e+01 0.000000000000e+00 0.000000000000e+00 -3.864302542005e+07 -1.960132696367e+04 -1.523974570659e+07 -1.317212244625e+07 0.000000000000e+00 0.000000000000e+00 0.000000000000e+00 0.000000000000e+00 2.235163119096e+07 2.450263017377e+07  0.000000000000e+00
1.567618708200e+01 1.000000000000e+05 1.000000000000e+00 0.000000000000e+00 0.000000000000e+00 2.500000000000e+01 0.000000000000e+00 0.000000000000e+00 -4.414320770328e+07 -1.039458447777e+05 -1.493821914647e+07 -1.472954125001e+07 0.000000000000e+00 0.000000000000e+00 0.000000000000e+00 0.000000000000e+00 2.460365603325e+07 2.931043760953e+07  0.000000000000e+00
1.601230646800e+01 1.000000000000e+05 1.000000000000e+00 0.000000000000e+00 0.000000000000e+00 2.500000000000e+01 0.000000000000e+00 0.000000000000e+00 -5.392247428685e+07 1.681961164950e+05 -1.289459479228e+07 -1.704877640293e+07 0.000000000000e+00 0.000000000000e+00 0.000000000000e+00 0.000000000000e+00 2.795528182735e+07 3.911766516493e+07  0.000000000000e+00
1.626000000000e+01 1.000000000000e+05 1.000000000000e+00 0.000000000000e+00 0.000000000000e+00 2.500000000000e+01 0.000000000000e+00 0.000000000000e+00 -6.854419775061e+07 7.586938602830e+05 -6.954707405871e+06 -1.965222756120e+07 0.000000000000e+00 0.000000000000e+00 0.000000000000e+00 0.000000000000e+00 3.171704423923e+07 5.633990941714e+07  0.000000000000e+00
1.636000000000e+01 1.000000000000e+05 1.000000000000e+00 0.000000000000e+00 0.000000000000e+00 2.500000000000e+01 0.000000000000e+00 0.000000000000e+00 -5.392170068764e+07 8.391404681268e+05 -2.357515820812e+05 -1.424861648653e+07 0.000000000000e+00 0.000000000000e+00 0.000000000000e+00 0.000000000000e+00 2.280202291875e+07 4.825308313763e+07  0.000000000000e+00
1.655254661500e+01 -7.000000000000e+07 6.817856140032e-01 0.000000000000e+00 0.000000000000e+00 2.500000000000e+01 0.000000000000e+00 0.000000000000e+00 0.000000000000e+00 0.000000000000e+00 0.000000000000e+00 0.000000000000e+00 0.000000000000e+00 0.000000000000e+00 0.000000000000e+00 0.000000000000e+00 -0.000000000000e+00 0.000000000000e+00  0.000000000000e+00
1.671286624100e+01 -7.000000000000e+07 6.684759947500e-01 0.000000000000e+00 0.000000000000e+00 2.500000000000e+01 0.000000000000e+00 0.000000000000e+00 0.000000000000e+00 0.000000000000e+00 0.000000000000e+00 0.000000000000e+00 0.000000000000e+00 0.000000000000e+00 0.000000000000e+00 0.000000000000e+00 -0.000000000000e+00 0.000000000000e+00  0.000000000000e+00
1.684635003100e+01 -7.000000000000e+07 6.684759947500e-01 0.000000000000e+00 0.000000000000e+00 2.500000000000e+01 0.000000000000e+00 0.000000000000e+00 0.000000000000e+00 0.000000000000e+00 0.000000000000e+00 0.000000000000e+00 0.000000000000e+00 0.000000000000e+00 0.000000000000e+00 0.000000000000e+00 -0.000000000000e+00 0.000000000000e+00  0.000000000000e+00
1.695745861500e+01 -7.000000000000e+07 6.684759947500e-01 0.000000000000e+00 0.000000000000e+00 2.500000000000e+01 0.000000000000e+00 0.000000000000e+00 0.000000000000e+00 0.000000000000e+00 0.000000000000e+00 0.000000000000e+00 0.000000000000e+00 0.000000000000e+00 0.000000000000e+00 0.000000000000e+00 -0.000000000000e+00 0.000000000000e+00  0.000000000000e+00
1.705000000000e+01 -7.000000000000e+07 6.684759947500e-01 0.000000000000e+00 0.000000000000e+00 2.500000000000e+01 0.000000000000e+00 0.000000000000e+00 0.000000000000e+00 0.000000000000e+00 0.000000000000e+00 0.000000000000e+00 0.000000000000e+00 0.000000000000e+00 0.000000000000e+00 0.000000000000e+00 -0.000000000000e+00 0.000000000000e+00  0.000000000000e+00
1.716700339000e+01 -7.000000000000e+07 0.000000000000e+00 0.000000000000e+00 0.000000000000e+00 2.500000000000e+01 0.000000000000e+00 0.000000000000e+00 0.000000000000e+00 0.000000000000e+00 0.000000000000e+00 0.000000000000e+00 0.000000000000e+00 0.000000000000e+00 0.000000000000e+00 0.000000000000e+00 -0.000000000000e+00 0.000000000000e+00  0.000000000000e+00
1.731435117100e+01 -7.000000000000e+07 0.000000000000e+00 0.000000000000e+00 0.000000000000e+00 2.500000000000e+01 0.000000000000e+00 0.000000000000e+00 0.000000000000e+00 0.000000000000e+00 0.000000000000e+00 0.000000000000e+00 0.000000000000e+00 0.000000000000e+00 0.000000000000e+00 0.000000000000e+00 -0.000000000000e+00 0.000000000000e+00  0.000000000000e+00
1.750000000000e+01 -7.000000000000e+07 0.000000000000e+00 0.000000000000e+00 0.000000000000e+00 2.500000000000e+01 0.000000000000e+00 0.000000000000e+00 0.000000000000e+00 0.000000000000e+00 0.000000000000e+00 0.000000000000e+00 0.000000000000e+00 0.000000000000e+00 0.000000000000e+00 0.000000000000e+00 -0.000000000000e+00 0.000000000000e+00  0.000000000000e+00
1.768564882900e+01 -7.000000000000e+07 0.000000000000e+00 0.000000000000e+00 0.000000000000e+00 2.500000000000e+01 0.000000000000e+00 0.000000000000e+00 0.000000000000e+00 0.000000000000e+00 0.000000000000e+00 0.000000000000e+00 0.000000000000e+00 0.000000000000e+00 0.000000000000e+00 0.000000000000e+00 -0.000000000000e+00 0.000000000000e+00  0.000000000000e+00
1.783299661000e+01 -7.000000000000e+07 0.000000000000e+00 0.000000000000e+00 0.000000000000e+00 2.500000000000e+01 0.000000000000e+00 0.000000000000e+00 0.000000000000e+00 0.000000000000e+00 0.000000000000e+00 0.000000000000e+00 0.000000000000e+00 0.000000000000e+00 0.000000000000e+00 0.000000000000e+00 -0.000000000000e+00 0.000000000000e+00  0.000000000000e+00
1.795000000000e+01 -7.000000000000e+07 6.684759947500e-01 0.000000000000e+00 0.000000000000e+00 2.500000000000e+01 0.000000000000e+00 0.000000000000e+00 0.000000000000e+00 0.000000000000e+00 0.000000000000e+00 0.000000000000e+00 0.000000000000e+00 0.000000000000e+00 0.000000000000e+00 0.000000000000e+00 -0.000000000000e+00 0.000000000000e+00  0.000000000000e+00
1.804254138500e+01 -7.000000000000e+07 6.684759947500e-01 0.000000000000e+00 0.000000000000e+00 2.500000000000e+01 0.000000000000e+00 0.000000000000e+00 0.000000000000e+00 0.000000000000e+00 0.000000000000e+00 0.000000000000e+00 0.000000000000e+00 0.000000000000e+00 0.000000000000e+00 0.000000000000e+00 -0.000000000000e+00 0.000000000000e+00  0.000000000000e+00
1.815364996900e+01 -7.000000000000e+07 6.684759947500e-01 0.000000000000e+00 0.000000000000e+00 2.500000000000e+01 0.000000000000e+00 0.000000000000e+00 0.000000000000e+00 0.000000000000e+00 0.000000000000e+00 0.000000000000e+00 0.000000000000e+00 0.000000000000e+00 0.000000000000e+00 0.000000000000e+00 -0.000000000000e+00 0.000000000000e+00  0.000000000000e+00
1.828713375900e+01 -7.000000000000e+07 6.684759947500e-01 0.000000000000e+00 0.000000000000e+00 2.500000000000e+01 0.000000000000e+00 0.000000000000e+00 0.000000000000e+00 0.000000000000e+00 0.000000000000e+00 0.000000000000e+00 0.000000000000e+00 0.000000000000e+00 0.000000000000e+00 0.000000000000e+00 -0.000000000000e+00 0.000000000000e+00  0.000000000000e+00
1.844745338500e+01 -7.000000000000e+07 6.817856140032e-01 0.000000000000e+00 0.000000000000e+00 2.500000000000e+01 0.000000000000e+00 0.000000000000e+00 0.000000000000e+00 0.000000000000e+00 0.000000000000e+00 0.000000000000e+00 0.000000000000e+00 0.000000000000e+00 0.000000000000e+00 0.000000000000e+00 -0.000000000000e+00 0.000000000000e+00  0.000000000000e+00
1.864000000000e+01 1.000000000000e+05 1.000000000000e+00 0.000000000000e+00 0.000000000000e+00 2.500000000000e+01 0.000000000000e+00 0.000000000000e+00 -5.404633198096e+07 -8.415612414852e+05 -2.382112667997e+05 -1.427991550205e+07 0.000000000000e+00 0.000000000000e+00 0.000000000000e+00 0.000000000000e+00 2.285481958327e+07 4.836372888919e+07  0.000000000000e+00
1.874000000000e+01 1.000000000000e+05 1.000000000000e+00 0.000000000000e+00 0.000000000000e+00 2.500000000000e+01 0.000000000000e+00 0.000000000000e+00 -6.872350638628e+07 -7.606752532009e+05 -6.978838611723e+06 -1.970204748514e+07 0.000000000000e+00 0.000000000000e+00 0.000000000000e+00 0.000000000000e+00 3.180146416105e+07 5.648388812957e+07  0.000000000000e+00
1.898769353200e+01 1.000000000000e+05 1.000000000000e+00 0.000000000000e+00 0.000000000000e+00 2.500000000000e+01 0.000000000000e+00 0.000000000000e+00 -5.410823344914e+07 -1.689429644963e+05 -1.294849661910e+07 -1.710726334129e+07 0.000000000000e+00 0.000000000000e+00 0.000000000000e+00 0.000000000000e+00 2.805466446984e+07 3.924705285650e+07  0.000000000000e+00
1.932381291800e+01 1.000000000000e+05 1.000000000000e+00 0.000000000000e+00 0.000000000000e+00 2.500000000000e+01 0.000000000000e+00 0.000000000000e+00 -4.435291322718e+07 1.034886541649e+05 -1.501905415465e+07 -1.480037701947e+07 0.000000000000e+00 0.000000000000e+00 0.000000000000e+00 0.000000000000e+00 2.472411480044e+07 2.944435228948e+07  0.000000000000e+00
1.978000000000e+01 1.000000000000e+05 1.000000000000e+00 0.000000000000e+00 0.000000000000e+00 2.500000000000e+01 0.000000000000e+00 0.000000000000e+00 -3.890012706693e+07 1.925492428938e+04 -1.535593636223e+07 -1.326342792049e+07 0.000000000000e+00 0.000000000000e+00 0.000000000000e+00 0.000000000000e+00 2.250649711655e+07 2.465714982673e+07  0.000000000000e+00
2.035000000000e+01 1.000000000000e+05 1.000000000000e+00 0.000000000000e+00 0.000000000000e+00 2.500000000000e+01 0.000000000000e+00 0.000000000000e+00 -3.614940070427e+07 4.059355993847e+04 -1.498630020040e+07 -1.232483181220e+07 0.000000000000e+00 0.000000000000e+00 0.000000000000e+00 0.000000000000e+00 2.115351090562e+07 2.261172491026e+07  0.000000000000e+00
2.092000000000e+01 1.000000000000e+05 1.000000000000e+00 0.000000000000e+00 0.000000000000e+00 2.500000000000e+01 0.000000000000e+00 0.000000000000e+00 -3.481576311450e+07 5.774537368953e+04 -1.465290486237e+07 -1.182218183856e+07 0.000000000000e+00 0.000000000000e+00 0.000000000000e+00 0.000000000000e+00 2.043028327181e+07 2.171725849175e+07  0.000000000000e+00
2.150954244600e+01 1.000000000000e+05 1.000000000000e+00 0.000000000000e+00 0.000000000000e+00 2.500000000000e+01 0.000000000000e+00 0.000000000000e+00 -3.403179267181e+07 5.986462189137e+03 -1.440509312998e+07 -1.150993858750e+07 0.000000000000e+00 0.000000000000e+00 0.000000000000e+00 0.000000000000e+00 1.998227479643e+07 2.122290485715e+07  0.000000000000e+00
2.217550067300e+01 1.000000000000e+05 1.000000000000e+00 0.000000000000e+00 0.000000000000e+00 2.500000000000e+01 0.000000000000e+00 0.000000000000e+00 -3.355155140696e+07 1.889946157116e+04 -1.417836602305e+07 -1.129494718119e+07 0.000000000000e+00 0.000000000000e+00 0.000000000000e+00 0.000000000000e+00 1.967495487040e+07 2.096417170958e+07  0.000000000000e+00
2.292802878200e+01 1.000000000000e+05 1.000000000000e+00 0.000000000000e+00 0.000000000000e+00 2.500000000000e+01 0.000000000000e+00 0.000000000000e+00 -3.321759145870e+07 2.864292075604e+04 -1.402428689527e+07 -1.114519129296e+07 0.000000000000e+00 0.000000000000e+00 0.000000000000e+00 0.000000000000e+00 1.946235654897e+07 2.078302075168e+07  0.000000000000e+00
2.377808685200e+01 1.000000000000e+05 1.000000000000e+00 0.000000000000e+00 0.000000000000e+00 2.500000000000e+01 0.000000000000e+00 0.000000000000e+00 -3.299313065045e+07 1.872346538785e+03 -1.391989787893e+07 -1.104259197139e+07 0.000000000000e+00 0.000000000000e+00 0.000000000000e+00 0.000000000000e+00 1.931854016692e+07 2.066268698617e+07  0.000000000000e+00
2.473848352600e+01 1.000000000000e+05 1.000000000000e+00 0.000000000000e+00 0.000000000000e+00 2.500000000000e+01 0.000000000000e+00 0.000000000000e+00 -3.286709085011e+07 1.069416908263e+04 -1.383215902212e+07 -1.097422766907e+07 0.000000000000e+00 0.000000000000e+00 0.000000000000e+00 0.000000000000e+00 1.922449251376e+07 2.061303647901e+07  0.000000000000e+00
2.582383040900e+01 1.000000000000e+05 1.000000000000e+00 0.000000000000e+00 0.000000000000e+00 2.500000000000e+01 0.000000000000e+00 0.000000000000e+00 -3.279377311835e+07 3.173655274308e+03 -1.378603917776e+07 -1.093341988051e+07 0.000000000000e+00 0.000000000000e+00 0.000000000000e+00 0.000000000000e+00 1.917107739221e+07 2.058283861043e+07  0.000000000000e+00
2.704980320500e+01 1.000000000000e+05 1.000000000000e+00 0.000000000000e+00 0.000000000000e+00 2.500000000000e+01 0.000000000000e+00 0.000000000000e+00 -3.276876853058e+07 8.943984099586e+03 -1.375518114003e+07 -1.091133240684e+07 0.000000000000e+00 0.000000000000e+00 0.000000000000e+00 0.000000000000e+00 1.914509402582e+07 2.058339105866e+07  0.000000000000e+00
2.843495304000e+01 1.000000000000e+05 1.000000000000e+00 0.000000000000e+00 0.000000000000e+00 2.500000000000e+01 0.000000000000e+00 0.000000000000e+00 -3.277696111088e+07 2.472560785650e+03 -1.375204227306e+07 -1.090641989152e+07 0.000000000000e+00 0.000000000000e+00 0.000000000000e+00 0.000000000000e+00 1.914514109182e+07 2.059569995695e+07  0.000000000000e+00
3.000000000000e+01 1.000000000000e+05 1.000000000000e+00 0.000000000000e+00 0.000000000000e+00 2.500000000000e+01 0.000000000000e+00 0.000000000000e+00 -3.282110316024e+07 8.160466158841e+01 -1.375753423613e+07 -1.091425260571e+07 0.000000000000e+00 0.000000000000e+00 0.000000000000e+00 0.000000000000e+00 1.916429666736e+07 2.063266841458e+07  0.000000000000e+00
3.207132281000e+01 1.000000000000e+05 1.000000000000e+00 0.000000000000e+00 0.000000000000e+00 2.500000000000e+01 0.000000000000e+00 0.000000000000e+00 -3.290227901017e+07 2.278971091962e+03 -1.378468425085e+07 -1.093766710134e+07 0.000000000000e+00 0.000000000000e+00 0.000000000000e+00 0.000000000000e+00 1.920821012079e+07 2.068854929060e+07  0.000000000000e+00
3.500000000000e+01 1.000000000000e+05 1.000000000000e+00 0.000000000000e+00 0.000000000000e+00 2.500000000000e+01 0.000000000000e+00 0.000000000000e+00 -3.303830144401e+07 -1.582026722528e+03 -1.384677053614e+07 -1.098488163638e+07 0.000000000000e+00 0.000000000000e+00 0.000000000000e+00 0.000000000000e+00 1.928998453884e+07 2.077087632830e+07  0.000000000000e+00
 TITLE = "Profiles along polylines"
 VARIABLES = "DIST" "PRESSURE1" "SATURATION1" "VELOCITY_X1" "VELOCITY_Y1" "TEMPERATURE1" "DISPLACEMENT_X1" "DISPLACEMENT_Y1" "STRESS_XX" "STRESS_XY" "STRESS_YY" "STRESS_ZZ" "STRAIN_XX" "STRAIN_XY" "STRAIN_YY" "STRAIN_PLS"  p_(1st_Invariant)  q_(2nd_Invariant)   Effective_Strain
 ZONE T="TIME=1.000000000000e-03"
0.000000000000e+00 2.334135896320e+05 1.000000000000e+00 -1.865376704389e-05 -2.977637586887e-03 2.447870096528e+01 0.000000000000e+00 5.466344584500e-05 -3.071573393281e+07 1.328362499337e+04 -1.215269036577e+07 -9.764561696487e+06 -6.583583935896e-06 9.067120093005e-07 6.761243096328e-06 0.000000000000e+00 1.754432866502e+07 1.986507515487e+07  1.166351478276e-05
2.928677190000e+00 2.343154897181e+05 1.000000000000e+00 -4.171916973665e-05 -3.050181620321e-03 2.506534753914e+01 0.000000000000e+00 1.649088139008e-05 -3.128884357696e+07 -1.729213564835e+04 -1.223450705214e+07 -1.013741488724e+07 -7.572439921861e-06 -9.558842999273e-07 1.774798831482e-05 0.000000000000e+00 1.788692183878e+07 2.018477477795e+07  2.257143449640e-05
5.000000000000e+00 2.342026657869e+05 1.000000000000e+00 -8.148800181381e-05 -3.167469276001e-03 2.499813937129e+01 0.000000000000e+00 -2.010243036120e-05 -3.147790676734e+07 3.983925799153e+03 -1.230312937616e+07 -1.018686677846e+07 -8.986749656153e-06 3.988069769170e-07 1.816482286806e-05 0.000000000000e+00 1.798930097399e+07 2.031574677955e+07  2.396752627803e-05
6.565046960000e+00 2.333162555124e+05 1.000000000000e+00 -1.269630564780e-04 -3.344799147723e-03 2.499766710388e+01 0.000000000000e+00 -5.150081409181e-05 -3.171140167890e+07 1.534683607417e+03 -1.231041062861e+07 -1.025210032300e+07 -1.235231052590e-05 3.907300161994e-07 2.154407300492e-05 0.000000000000e+00 1.809130421017e+07 2.050776345512e+07  2.972042641948e-05
7.950196795000e+00 2.316874451051e+05 1.000000000000e+00 -1.569128191050e-04 -3.606745212935e-03 2.500053834216e+01 0.000000000000e+00 -8.477322926881e-05 -3.199062605675e+07 9.320384064296e+03 -1.229042075932e+07 -1.032420155202e+07 -1.684146734193e-05 1.475899623096e-06 2.599599349321e-05 0.000000000000e+00 1.820174945603e+07 2.075329586799e+07  3.746694829390e-05
9.176169591000e+00 2.291884807622e+05 1.000000000000e+00 -1.725290934852e-04 -3.877648086108e-03 2.499993355520e+01 0.000000000000e+00 -1.205369084511e-04 -3.231121963031e+07 5.021034344797e+03 -1.223565437440e+07 -1.039846947889e+07 -2.287156724801e-05 6.558681087624e-07 3.200923943928e-05 0.000000000000e+00 1.831511449453e+07 2.105436224572e+07  4.776077846082e-05
1.026151647400e+01 2.257922828547e+05 1.000000000000e+00 -2.114384196819e-04 -4.270388949918e-03 2.500000647750e+01 0.000000000000e+00 -1.603324775157e-04 -3.273766669562e+07 1.744205612110e+04 -1.213011745591e+07 -1.048978394805e+07 -3.133619804681e-05 2.165171875340e-06 4.036001507887e-05 0.000000000000e+00 1.845252269986e+07 2.147477464126e+07  6.236731081768e-05
1.122191314800e+01 2.214870716865e+05 1.000000000000e+00 -3.288216845295e-04 -4.679323804238e-03 2.500000066190e+01 0.000000000000e+00 -2.048058328128e-04 -3.327714163674e+07 5.646458565382e+03 -1.196996329440e+07 -1.059934832385e+07 -4.281956485318e-05 5.926559441269e-07 5.180990614036e-05 0.000000000000e+00 1.861548441833e+07 2.202449698798e+07  8.208113588217e-05
1.207197121800e+01 2.163825623022e+05 1.000000000000e+00 -3.835034952335e-04 -5.317636946557e-03 2.500000105667e+01 0.000000000000e+00 -2.563624176209e-04 -3.402632147671e+07 3.976991496143e+04 -1.171836449115e+07 -1.074467825732e+07 -5.855186475088e-05 5.153592771607e-06 6.728829516038e-05 0.000000000000e+00 1.882978807506e+07 2.281049550781e+07  1.094329440539e-04
1.282449932700e+01 2.105056869450e+05 1.000000000000e+00 -3.574856782901e-04 -5.933384292393e-03 2.499999991692e+01 0.000000000000e+00 -3.154283219953e-04 -3.502069884694e+07 4.516550046142e+04 -1.134283917348e+07 -1.092698944239e+07 -8.004285850159e-05 4.808054214812e-06 8.874030457151e-05 0.000000000000e+00 1.909684248761e+07 2.388862744195e+07  1.464721156082e-04
1.349045755400e+01 2.036250527878e+05 1.000000000000e+00 -5.393115972500e-04 -6.623956404688e-03 2.500000003760e+01 0.000000000000e+00 -3.847885175177e-04 -3.637700329162e+07 2.146603972744e+04 -1.081365304690e+07 -1.117222406509e+07 -1.098827974814e-04 2.062379205374e-06 1.184461256488e-04 0.000000000000e+00 1.945429346787e+07 2.538599130931e+07  1.978172533543e-04
1.408000000000e+01 1.960039119575e+05 1.000000000000e+00 -6.844165326305e-04 -7.729354459494e-03 2.500000003920e+01 0.000000000000e+00 -4.687204199715e-04 -3.837812061416e+07 1.385209093305e+05 -9.980026389637e+06 -1.151976266401e+07 -1.523211500491e-04 1.464235137939e-05 1.604099949670e-04 0.000000000000e+00 1.995930322260e+07 2.766142678363e+07  2.720480279511e-04
1.465000000000e+01 1.865279769542e+05 1.000000000000e+00 -7.700012132973e-04 -9.092213407497e-03 2.499999998312e+01 0.000000000000e+00 -5.803810359306e-04 -4.158436815327e+07 1.821154774872e+05 -8.552431236598e+06 -1.205081825602e+07 -2.194739340481e-04 1.659514397565e-05 2.273519446268e-04 0.000000000000e+00 2.072920588196e+07 3.143069466319e+07  3.880486265452e-04
1.522000000000e+01 1.740556493452e+05 1.000000000000e+00 -1.072126815700e-03 -1.088016023731e-02 2.500000172592e+01 0.000000000000e+00 -7.463223700440e-04 -4.769488359112e+07 1.334210609171e+05 -5.614345158646e+06 -1.300005999471e+07 -3.426027659828e-04 1.136737738543e-05 3.511239864378e-04 0.000000000000e+00 2.210309624816e+07 3.891759300027e+07  6.011226246560e-04
1.567618708200e+01 1.608514853684e+05 1.000000000000e+00 -1.515778892800e-03 -1.360546273094e-02 2.500003191496e+01 0.000000000000e+00 -9.541017637877e-04 -5.880098406205e+07 3.052538830547e+05 4.704391987831e+05 -1.450428810688e+07 -5.527982386418e-04 3.039769406755e-05 5.639550503647e-04 0.000000000000e+00 2.427827765672e+07 5.338586154305e+07  9.685848488419e-04
1.601230646800e+01 1.487274502835e+05 1.000000000000e+00 -1.287594278505e-03 -1.590546896158e-02 2.500031064916e+01 0.000000000000e+00 -1.187937548750e-03 -7.608136648480e+07 6.807350966326e+05 8.931482519772e+06 -1.714870770287e+07 -8.193328333544e-04 3.807432423880e-05 8.143946055887e-04 0.000000000000e+00 2.809953055597e+07 7.544269179537e+07  1.416387682659e-03
1.626000000000e+01 1.375363589691e+05 1.000000000000e+00 -1.685707504291e-03 -1.821868912144e-02 2.500138182990e+01 0.000000000000e+00 -1.438919235673e-03 -1.002650243958e+08 1.577743358797e+06 2.515447691764e+07 -1.953615766817e+07 -1.182513299991e-03 6.084367703244e-05 1.188315678846e-03 0.000000000000e+00 3.154890171544e+07 1.101348938737e+08  2.055902918714e-03
1.636000000000e+01 1.321562803133e+05 1.000000000000e+00 -2.221589525574e-03 -2.082631007889e-02 2.500277205228e+01 0.000000000000e+00 -1.572050567646e-03 -7.162103067020e+07 1.794583792390e+06 4.135664617786e+07 -5.932163328642e+06 -9.474396371519e-04 3.404817560218e-03 3.032389773807e-02 0.000000000000e+00 1.206551594032e+07 9.832226972835e+07  3.136789483564e-02
1.655254661500e+01 -6.993840078841e+07 6.819894981184e-01 -7.782662983701e-04 -4.209881966832e-03 2.502342968392e+01 0.000000000000e+00 -5.581574075886e-03 -1.043262789304e+07 -4.723724007783e+05 -1.166725492206e+07 -7.735298023886e+06 -1.148705149323e-02 -4.023361142276e-03 -1.674492685343e-02 0.000000000000e+00 9.945060279662e+06 3.577638291040e+06  1.638772085931e-02
1.671286624100e+01 -6.999994537896e+07 6.684871907380e-01 -3.562881979814e-07 -3.361959701309e-06 2.514415115344e+01 0.000000000000e+00 -4.035115785204e-03 -5.909952893903e+06 -3.713422253456e+04 -6.794752384110e+06 -4.447133734570e+06 -6.229671498737e-03 -3.162851761619e-04 -9.997745037473e-03 0.000000000000e+00 5.717279670861e+06 2.054543386905e+06  8.762485631536e-03
1.684635003100e+01 -6.999999993738e+07 6.684760005844e-01 3.944945923937e-10 -1.874136396977e-07 2.569166338793e+01 0.000000000000e+00 -2.613054150227e-03 -5.406668205264e+06 -8.991055832922e+03 -7.009681633190e+06 -4.347683216710e+06 -4.509872979646e-03 -7.657997081669e-05 -1.133658631624e-02 0.000000000000e+00 5.588011018388e+06 2.321402793565e+06  9.886767558954e-03
1.695745861500e+01 -6.999999998899e+07 6.684759948411e-01 1.988127178712e-10 -1.844061247759e-07 2.746911355491e+01 0.000000000000e+00 -1.244927063526e-03 -5.017368551876e+06 -5.280829446427e+03 -7.430898413493e+06 -4.364119914069e+06 -2.781973694129e-03 -4.497867351846e-05 -1.306041316789e-02 0.000000000000e+00 5.604128959813e+06 2.797959780197e+06  1.191579259330e-02
1.705000000000e+01 -6.999999537629e+07 6.684760111000e-01 6.369829107143e-10 -1.838934405766e-07 3.230801431826e+01 0.000000000000e+00 1.043277695066e-04 2.085619235076e+07 -5.996205588570e+05 1.473390511190e+07 1.045806826468e+07 2.629041963369e-05 -4.249693651355e-04 -5.267767987499e-03 0.000000000000e+00 -1.534938857578e+07 9.111625408676e+06  5.332012703578e-03
1.716700339000e+01 -7.000000000000e+07 0.000000000000e+00 0.000000000000e+00 0.000000000000e+00 2.500000000000e+01 0.000000000000e+00 9.606172711424e-05 3.641119821297e+07 -4.544569735601e+05 3.608144328620e+07 2.174779244975e+07 9.531213746090e-05 -5.907940656282e-06 9.316873043694e-05 0.000000000000e+00 -3.141347798297e+07 1.452268811265e+07  9.481253252881e-05
1.731435117100e+01 -7.000000000000e+07 0.000000000000e+00 0.000000000000e+00 0.000000000000e+00 2.500000000000e+01 0.000000000000e+00 8.155045185643e-05 3.763401141452e+07 6.831405988056e+03 3.754714749847e+07 2.255434767390e+07 9.801781431403e-05 8.880827784472e-08 9.745319885975e-05 0.000000000000e+00 -3.257850219563e+07 1.503642461589e+07  9.773685078559e-05
1.750000000000e+01 -7.000000000000e+07 0.000000000000e+00 0.000000000000e+00 0.000000000000e+00 2.500000000000e+01 0.000000000000e+00 6.346723481716e-05 3.769174140799e+07 -2.615459427217e-01 3.755454715447e+07 2.257388656874e+07 9.826605645516e-05 -3.400097255382e-12 9.737429380724e-05 0.000000000000e+00 -3.260672504373e+07 1.504972672159e+07  9.782322369031e-05
1.768564882900e+01 -7.000000000000e+07 0.000000000000e+00 0.000000000000e+00 0.000000000000e+00 2.500000000000e+01 0.000000000000e+00 4.538401367424e-05 3.763375547331e+07 -6.833653641135e+03 3.754705084334e+07 2.255424189500e+07 9.801683825904e-05 -8.883749733476e-08 9.745325816425e-05 0.000000000000e+00 -3.257834940388e+07 1.503635341108e+07  9.773638801454e-05
1.783299661000e+01 -7.000000000000e+07 0.000000000000e+00 0.000000000000e+00 0.000000000000e+00 2.500000000000e+01 0.000000000000e+00 3.087272725645e-05 3.641075395095e+07 4.544527410550e+05 3.608127447001e+07 2.174760852629e+07 9.531044526030e-05 5.907885633715e-06 9.316882863418e-05 0.000000000000e+00 -3.141321231575e+07 1.452256061482e+07  9.481169970664e-05