 TITLE = "Time curves in points"
 VARIABLES = "TIME"  "PRESSURE1"  "SATURATION1"  "TEMPERATURE1"  "DISPLACEMENT_X1"  "DISPLACEMENT_Y1"  "STRESS_XX"  "STRESS_XY"  "STRESS_YY"  "STRESS_ZZ"  "STRAIN_XX"  "STRAIN_XY"  "STRAIN_YY"  "STRAIN_PLS"  p_(1st_Invariant)  q_(2nd_Invariant)   Effective_Strain
 ZONE T="POINT=POINT6"
0.000000000000e+00 1.000000000000e+05 1.000000000000e+00 2.500000000000e+01 0.000000000000e+00 0.000000000000e+00 -3.469356097083e+07 -2.647723766222e+04 -1.284658998549e+07 -1.133658524457e+07 0.000000000000e+00 0.000000000000e+00 0.000000000000e+00 0.000000000000e+00 1.962557873363e+07 2.263981864872e+07  0.000000000000e+00
1.000000000000e-03 2.334135896320e+05 1.000000000000e+00 2.447870096528e+01 0.000000000000e+00 5.466344584500e-05 -3.448402931192e+07 -1.095175479752e+04 -1.283861322730e+07 -1.110082716868e+07 -9.741240590728e-07 1.153321584234e-06 -8.460448942956e-06 0.000000000000e+00 1.947448990263e+07 2.256456070899e+07  8.262992143462e-06
2.000000000000e-03 2.334135767170e+05 1.000000000000e+00 2.447870184588e+01 0.000000000000e+00 5.278816493700e-05 -3.448521356738e+07 -1.190873473465e+04 -1.284907432861e+07 -1.110377983986e+07 -9.084400466114e-07 1.082231646048e-06 -8.739333490618e-06 0.000000000000e+00 1.947935591195e+07 2.255948656413e+07  8.530869162171e-06
3.000000000000e-03 2.334099446350e+05 1.000000000000e+00 2.447870265160e+01 0.000000000000e+00 5.122332899914e-05 -3.448571968253e+07 -1.278813965097e+04 -1.285701605198e+07 -1.110581528310e+07 -8.516364316480e-07 1.016904423693e-06 -8.958709609743e-06 0.000000000000e+00 1.948285033920e+07 2.255535896208e+07  8.743939776782e-06
4.000000000000e-03 2.333989359300e+05 1.000000000000e+00 2.447870339123e+01 0.000000000000e+00 4.963293375400e-05 -3.448594778590e+07 -1.359657858788e+04 -1.286359581879e+07 -1.110739697673e+07 -8.013602219665e-07 9.568489598082e-07 -9.144352327841e-06 0.000000000000e+00 1.948564686047e+07 2.255180797742e+07  8.926372011378e-06
1.000000000000e-02 2.311936456360e+05 1.000000000000e+00 2.447870657472e+01 0.000000000000e+00 4.116434146714e-05 -3.448598327619e+07 -1.681555202068e+04 -1.288999727450e+07 -1.111343845828e+07 -5.782805466473e-07 7.177252190854e-07 -9.900579939224e-06 0.000000000000e+00 1.949647300299e+07 2.253686225337e+07  9.704430287995e-06
2.000000000000e-02 2.212675572970e+05 1.000000000000e+00 2.447871069638e+01 0.000000000000e+00 3.350073065146e-05 -3.448541157681e+07 -1.981898480804e+04 -1.292255067183e+07 -1.112115972088e+07 -2.702562449340e-07 4.946130691671e-07 -1.082291637233e-05 0.000000000000e+00 1.950970732317e+07 2.251768861702e+07  1.072462226686e-05
3.000000000000e-02 2.075009229160e+05 1.000000000000e+00 2.447871456597e+01 0.000000000000e+00 3.069363653000e-05 -3.448443869458e+07 -2.156001770773e+04 -1.294952388991e+07 -1.112778033226e+07 1.178780374631e-08 3.652791966187e-07 -1.157887033542e-05 0.000000000000e+00 1.952058097225e+07 2.250119534707e+07  1.160203229277e-05
4.000000000000e-02 1.919972533250e+05 1.000000000000e+00 2.447871851270e+01 0.000000000000e+00 3.291876338700e-05 -3.448205566439e+07 -2.260189939833e+04 -1.297083397530e+07 -1.113267164551e+07 2.819777030672e-07 2.878822710319e-07 -1.218871044356e-05 0.000000000000e+00 1.952852042840e+07 2.248675497313e+07  1.234219376295e-05
5.000000000000e-02 1.762362105500e+05 1.000000000000e+00 2.447872261597e+01 0.000000000000e+00 3.742749553670e-05 -3.447927786532e+07 -2.324125371714e+04 -1.298986510699e+07 -1.113699343183e+07 5.456765888520e-07 2.403873787768e-07 -1.273505755722e-05 0.000000000000e+00 1.953537880138e+07 2.247324495541e+07  1.302313460606e-05
6.000000000000e-02 1.604597903140e+05 1.000000000000e+00 2.447872687006e+01 0.000000000000e+00 4.677630613401e-05 -3.447431073560e+07 -2.363792448501e+04 -1.300307643373e+07 -1.113905706566e+07 8.068192351031e-07 2.109204074497e-07 -1.314911472231e-05 0.000000000000e+00 1.953881474500e+07 2.246136557513e+07  1.357544092087e-05
7.000000000000e-02 1.455698547290e+05 1.000000000000e+00 2.447873122071e+01 0.000000000000e+00 5.634363715700e-05 -3.446959875905e+07 -2.388278752491e+04 -1.301634096185e+07 -1.114130754833e+07 1.065424863237e-06 1.927305816288e-07 -1.355820783900e-05 0.000000000000e+00 1.954241575641e+07 2.244961707415e+07  1.412504219139e-05
8.000000000000e-02 1.319055427570e+05 1.000000000000e+00 2.447873561305e+01 0.000000000000e+00 6.753861195099e-05 -3.446431515283e+07 -2.402763595202e+04 -1.302798602673e+07 -1.114296514884e+07 1.323241113318e-06 1.819704127576e-07 -1.392917080125e-05 0.000000000000e+00 1.954508877613e+07 2.243834151719e+07  1.463911737183e-05
9.000000000000e-02 1.205674320160e+05 1.000000000000e+00 2.447873993944e+01 0.000000000000e+00 7.760223547500e-05 -3.445989827997e+07 -2.410465493834e+04 -1.304139986630e+07 -1.114545925607e+07 1.579934659232e-06 1.762490023448e-07 -1.433476085966e-05 0.000000000000e+00 1.954891913411e+07 2.242669411995e+07  1.518956020026e-05
1.000000000000e-01 1.126213907650e+05 1.000000000000e+00 2.447874405795e+01 0.000000000000e+00 8.646834670000e-05 -3.445631125899e+07 -2.413398070764e+04 -1.305653344285e+07 -1.114875202173e+07 1.835469591301e-06 1.740705166256e-07 -1.477456240751e-05 0.000000000000e+00 1.955386557452e+07 2.241468193867e+07  1.577548112141e-05
2.000000000000e-01 1.225914106110e+05 1.000000000000e+00 2.448021059699e+01 0.000000000000e+00 2.602023956080e-04 -3.437492263605e+07 -2.334005203796e+04 -1.309726440307e+07 -1.113631432043e+07 4.396503824205e-06 2.330480749445e-07 -1.674939840638e-05 0.000000000000e+00 1.953616711985e+07 2.232286104088e+07  1.933063168172e-05
3.000000000000e-01 1.420620612730e+05 1.000000000000e+00 2.448611462932e+01 0.000000000000e+00 4.663654012647e-04 -3.427962785335e+07 -2.236162514190e+04 -1.309699727742e+07 -1.110932475886e+07 6.933554894149e-06 3.057312157949e-07 -1.774194602636e-05 0.000000000000e+00 1.949531662987e+07 2.224320824322e+07  2.204871886764e-05
4.000000000000e-01 1.621984937820e+05 1.000000000000e+00 2.449981673137e+01 0.000000000000e+00 6.660330917960e-04 -3.419481497954e+07 -2.145620431322e+04 -1.310369888413e+07 -1.109048457616e+07 9.383969135761e-06 3.729910487828e-07 -1.869064106157e-05 0.000000000000e+00 1.946299947995e+07 2.216642794408e+07  2.476305122253e-05
5.000000000000e-01 1.815513874540e+05 1.000000000000e+00 2.452393734028e+01 0.000000000000e+00 8.611610646280e-04 -3.412144248285e+07 -2.067785075753e+04 -1.311305279488e+07 -1.107963784838e+07 1.170635483813e-05 4.308115986341e-07 -1.944095049269e-05 0.000000000000e+00 1.943804437537e+07 2.209541287101e+07  2.726038811928e-05
6.000000000000e-01 1.998797458080e+05 1.000000000000e+00 2.455991550361e+01 0.000000000000e+00 1.052347936292e-03 -3.406048301180e+07 -2.002162567914e+04 -1.312291070249e+07 -1.107690383744e+07 1.386901478528e-05 4.795597473142e-07 -1.990865032441e-05 0.000000000000e+00 1.942009918391e+07 2.203196989781e+07  2.941950419725e-05
7.000000000000e-01 2.172260171510e+05 1.000000000000e+00 2.460807585663e+01 0.000000000000e+00 1.239772444648e-03 -3.401232033013e+07 -1.946825373557e+04 -1.313204608324e+07 -1.108212260292e+07 1.585175425079e-05 5.206673774082e-07 -2.005412460606e-05 0.000000000000e+00 1.940882967210e+07 2.197708216286e+07  3.117935799638e-05
8.000000000000e-01 2.338742176340e+05 1.000000000000e+00 2.466791995127e+01 0.000000000000e+00 1.423629226378e-03 -3.397661245298e+07 -1.899798216530e+04 -1.313953152099e+07 -1.109472278889e+07 1.764605373779e-05 5.556018369139e-07 -1.986414824361e-05 0.000000000000e+00 1.940362225428e+07 2.193112200341e+07  3.251795666284e-05
9.000000000000e-01 2.497064717590e+05 1.000000000000e+00 2.473844571409e+01 0.000000000000e+00 1.603745480574e-03 -3.395281299715e+07 -1.859249659062e+04 -1.314570255454e+07 -1.111427734715e+07 1.925634569006e-05 5.857236224617e-07 -1.936704589695e-05 0.000000000000e+00 1.940426429961e+07 2.189364426113e+07  3.346426546903e-05
1.000000000000e+00 2.648014421000e+05 1.000000000000e+00 2.481840735633e+01 0.000000000000e+00 1.780147808158e-03 -3.393994836472e+07 -1.823869803122e+04 -1.315052773075e+07 -1.114003816848e+07 2.069100540109e-05 6.120058011598e-07 -1.858943622139e-05 0.000000000000e+00 1.941017142132e+07 2.186412563348e+07  3.405058915935e-05
2.000000000000e+00 3.766350511870e+05 1.000000000000e+00 2.591890828956e+01 0.000000000000e+00 3.262752306623e-03 -3.425807766186e+07 -1.664152524321e+04 -1.313325051299e+07 -1.161743651044e+07 2.660671278011e-05 7.306529225551e-07 -2.157725746898e-07 0.000000000000e+00 1.966958822843e+07 2.192209282378e+07  2.674521046407e-05
3.000000000000e+00 4.686151700600e+05 1.000000000000e+00 2.708342743637e+01 0.000000000000e+00 4.537430840422e-03 -3.473620841919e+07 -1.587758561708e+04 -1.308992802544e+07 -1.215704804319e+07 2.889028443861e-05 7.874027233527e-07 2.143606246516e-05 0.000000000000e+00 1.999439482927e+07 2.212749099895e+07  2.601383047992e-05
4.000000000000e+00 5.483132884460e+05 1.000000000000e+00 2.823167826303e+01 0.000000000000e+00 5.653304186584e-03 -3.526040058875e+07 -1.548945247592e+04 -1.303916321326e+07 -1.270217148741e+07 2.966773178309e-05 8.162354709820e-07 4.356905484578e-05 0.000000000000e+00 2.033391176314e+07 2.239165127506e+07  3.857253604746e-05
5.000000000000e+00 6.197397654110e+05 1.000000000000e+00 2.933713694020e+01 0.000000000000e+00 6.645802401431e-03 -3.578588523828e+07 -1.526897562906e+04 -1.298847864630e+07 -1.323243453178e+07 2.984521502005e-05 8.326137510347e-07 6.514710898081e-05 0.000000000000e+00 2.066893280545e+07 2.267642828372e+07  5.650338865642e-05
6.000000000000e+00 6.851606366850e+05 1.000000000000e+00 3.039255406408e+01 0.000000000000e+00 7.542331120941e-03 -3.629525990389e+07 -1.511270952617e+04 -1.294124203519e+07 -1.374117029112e+07 2.982148421566e-05 8.442220901063e-07 8.579751131166e-05 0.000000000000e+00 2.099255741007e+07 2.296452007391e+07  7.545901451508e-05
7.000000000000e+00 7.462730414350e+05 1.000000000000e+00 3.139551191406e+01 0.000000000000e+00 8.356344819008e-03 -3.678364321743e+07 -1.500823658569e+04 -1.289635322875e+07 -1.422579356333e+07 2.968182553758e-05 8.519829371132e-07 1.054651028047e-04 0.000000000000e+00 2.130193000317e+07 2.325110714683e+07  9.421082485508e-05
8.000000000000e+00 8.036369444830e+05 1.000000000000e+00 3.234847821821e+01 0.000000000000e+00 9.107001059665e-03 -3.724781239681e+07 -1.490673293876e+04 -1.285502405232e+07 -1.468660900051e+07 2.955725797023e-05 8.595232080282e-07 1.241161884529e-04 0.000000000000e+00 2.159648181655e+07 2.353053397816e+07  1.123037927893e-04
9.000000000000e+00 8.580655136630e+05 1.000000000000e+00 3.325456045260e+01 0.000000000000e+00 9.803154165371e-03 -3.768930091060e+07 -1.481544289761e+04 -1.281642045941e+07 -1.512494359537e+07 2.944011240999e-05 8.663047539421e-07 1.418310354275e-04 0.000000000000e+00 2.187688832179e+07 2.380274142869e+07  1.296514275075e-04
1.000000000000e+01 9.100569319250e+05 1.000000000000e+00 3.411648238339e+01 0.000000000000e+00 1.045146454342e-02 -3.810955787656e+07 -1.473646888784e+04 -1.277982986527e+07 -1.554199053465e+07 2.932088284781e-05 8.721713946678e-07 1.586804295259e-04 0.000000000000e+00 2.214379275883e+07 2.406783176152e+07  1.462491868352e-04
1.100000000000e+01 9.599017900680e+05 1.000000000000e+00 3.493739274946e+01 0.000000000000e+00 1.105912744920e-02 -3.850951664348e+07 -1.466302771974e+04 -1.274486692292e+07 -1.593903082084e+07 2.921248213463e-05 8.776270242985e-07 1.747262637286e-04 0.000000000000e+00 2.239780479575e+07 2.432537747422e+07  1.621134145559e-04
1.200000000000e+01 1.007946846100e+06 1.000000000000e+00 3.572000571424e+01 0.000000000000e+00 1.163009324279e-02 -3.889083743325e+07 -1.460045128490e+04 -1.271093385933e+07 -1.631734301698e+07 2.910073437121e-05 8.822755594581e-07 1.900382305187e-04 0.000000000000e+00 2.263970476986e+07 2.457597879386e+07  1.772948531780e-04
1.300000000000e+01 1.054427457860e+06 1.000000000000e+00 3.646655380801e+01 0.000000000000e+00 1.216753471662e-02 -3.925477454676e+07 -1.454880719691e+04 -1.267787507641e+07 -1.667804485808e+07 2.898056711036e-05 8.861119774230e-07 2.046636251252e-04 0.000000000000e+00 2.287023149375e+07 2.481977978530e+07  1.918284660309e-04
1.400000000000e+01 1.100043684190e+06 1.000000000000e+00 3.717896992581e+01 0.000000000000e+00 1.267452910512e-02 -3.960208356303e+07 -1.450802241536e+04 -1.264494111390e+07 -1.702181971695e+07 2.884929840688e-05 8.891417040521e-07 2.186556670621e-04 0.000000000000e+00 2.308961479796e+07 2.505707658111e+07  2.057593057152e-04
1.500000000000e+01 1.144328323690e+06 1.000000000000e+00 3.785899718853e+01 0.000000000000e+00 1.315294414835e-02 -3.993385702084e+07 -1.447820622753e+04 -1.261248660298e+07 -1.734971582729e+07 2.870528264353e-05 8.913566208627e-07 2.320401187087e-04 0.000000000000e+00 2.329868648370e+07 2.528777682394e+07  2.191077732526e-04
1.600000000000e+01 1.187416062120e+06 1.000000000000e+00 3.850823173461e+01 0.000000000000e+00 1.360480244800e-02 -4.025083757387e+07 -1.445780388522e+04 -1.258052870185e+07 -1.766252306546e+07 2.855027380633e-05 8.928722234343e-07 2.448456810259e-04 0.000000000000e+00 2.349796311373e+07 2.551181947925e+07  2.318976198246e-04
1.700000000000e+01 1.229427499770e+06 1.000000000000e+00 3.912814233171e+01 0.000000000000e+00 1.403188456995e-02 -4.055370544132e+07 -1.444555856072e+04 -1.254907238193e+07 -1.796096379688e+07 2.838583732500e-05 8.937818761114e-07 2.570990000752e-04 0.000000000000e+00 2.368791387338e+07 2.572917865513e+07  2.441517514700e-04
1.800000000000e+01 1.270471825970e+06 1.000000000000e+00 3.972008145039e+01 0.000000000000e+00 1.443576165308e-02 -4.084307780422e+07 -1.444061908907e+04 -1.251806261064e+07 -1.824568233479e+07 2.821298096834e-05 8.941488082911e-07 2.688260515599e-04 0.000000000000e+00 2.386894091655e+07 2.593988865253e+07  2.558934007008e-04
1.900000000000e+01 1.310633782880e+06 1.000000000000e+00 4.028529438307e+01 0.000000000000e+00 1.481781661506e-02 -4.111952985501e+07 -1.444244821618e+04 -1.248743187373e+07 -1.851726878617e+07 2.803225870420e-05 8.940129302770e-07 2.800512614105e-04 0.000000000000e+00 2.404141017164e+07 2.614401867474e+07  2.671449885601e-04
2.000000000000e+01 1.349995946340e+06 1.000000000000e+00 4.082492863823e+01 0.000000000000e+00 1.517928750663e-02 -4.138357182219e+07 -1.445231395108e+04 -1.245680875004e+07 -1.877616808065e+07 2.784124514685e-05 8.932800471132e-07 2.908049512285e-04 0.000000000000e+00 2.420551621762e+07 2.634186668909e+07  2.779364612659e-04
2.100000000000e+01 1.388472754850e+06 1.000000000000e+00 4.134131914436e+01 0.000000000000e+00 1.552472467759e-02 -4.163525083101e+07 -1.445427134848e+04 -1.242699250049e+07 -1.902345577559e+07 2.767813920274e-05 8.931346404492e-07 3.010973834524e-04 0.000000000000e+00 2.436189970236e+07 2.653234075262e+07  2.882608046323e-04
2.200000000000e+01 1.426190233860e+06 1.000000000000e+00 4.183639356871e+01 0.000000000000e+00 1.585493815952e-02 -4.187600852232e+07 -1.445557169653e+04 -1.239773600199e+07 -1.926016738563e+07 2.752785618414e-05 8.930380431655e-07 3.109761989122e-04 0.000000000000e+00 2.451130396998e+07 2.671646532926e+07  2.981708631414e-04
2.300000000000e+01 1.463228482370e+06 1.000000000000e+00 4.231146548328e+01 0.000000000000e+00 1.617049420580e-02 -4.210678526526e+07 -1.446084710569e+04 -1.236856809878e+07 -1.948690418778e+07 2.737780124062e-05 8.926461556278e-07 3.204812308260e-04 0.000000000000e+00 2.465408585061e+07 2.689509754186e+07  3.077110370544e-04
2.400000000000e+01 1.499644120820e+06 1.000000000000e+00 4.276749054018e+01 0.000000000000e+00 1.647192686995e-02 -4.232819929323e+07 -1.447004528824e+04 -1.233955741427e+07 -1.970420693368e+07 2.722509647800e-05 8.919628620669e-07 3.296300153840e-04 0.000000000000e+00 2.479065454706e+07 2.706845942113e+07  3.168995593918e-04
2.500000000000e+01 1.535482131400e+06 1.000000000000e+00 4.320524538876e+01 0.000000000000e+00 1.675975341730e-02 -4.254069246959e+07 -1.448321004001e+04 -1.231070462807e+07 -1.991248037579e+07 2.706836349160e-05 8.909849090784e-07 3.384375610070e-04 0.000000000000e+00 2.492129249115e+07 2.723670685453e+07  3.257516072781e-04
2.600000000000e+01 1.570774235150e+06 1.000000000000e+00 4.362540764395e+01 0.000000000000e+00 1.703446567957e-02 -4.274462179065e+07 -1.450018545301e+04 -1.228201996863e+07 -2.011207206081e+07 2.690725129610e-05 8.897238783984e-07 3.469163966585e-04 0.000000000000e+00 2.504623794003e+07 2.739993972930e+07  3.342795156825e-04
2.700000000000e+01 1.605546318150e+06 1.000000000000e+00 4.402858938007e+01 0.000000000000e+00 1.729653735687e-02 -4.294029028887e+07 -1.452078087800e+04 -1.225349682206e+07 -2.030328539999e+07 2.674177396009e-05 8.881939325419e-07 3.550780375578e-04 0.000000000000e+00 2.516569083697e+07 2.755824418284e+07  3.424945040103e-04
2.800000000000e+01 1.639831833480e+06 1.000000000000e+00 4.441535216502e+01 0.000000000000e+00 1.754640641166e-02 -4.312797813424e+07 -1.454457053940e+04 -1.222518008248e+07 -2.048641474485e+07 2.657245822713e-05 8.864267005522e-07 3.629317492654e-04 0.000000000000e+00 2.527985765386e+07 2.771166349713e+07  3.504053633598e-04
2.900000000000e+01 1.673654166930e+06 1.000000000000e+00 4.478621585322e+01 0.000000000000e+00 1.778449018933e-02 -4.330793877700e+07 -1.457147689279e+04 -1.219705702421e+07 -2.066171454999e+07 2.639934140115e-05 8.844279428716e-07 3.704874556208e-04 0.000000000000e+00 2.538890345040e+07 2.786027760246e+07  3.580217895762e-04
3.000000000000e+01 1.707028523550e+06 1.000000000000e+00 4.514166471358e+01 0.000000000000e+00 1.801119242865e-02 -4.348039704838e+07 -1.460125036797e+04 -1.216911337923e+07 -2.082941775916e+07 2.622272480448e-05 8.822161990015e-07 3.777543387748e-04 0.000000000000e+00 2.549297606226e+07 2.800415593178e+07  3.653526496499e-04
3.100000000000e+01 1.739862169900e+06 1.000000000000e+00 4.548316211200e+01 0.000000000000e+00 1.822961077494e-02 -4.364521859686e+07 -1.462235035815e+04 -1.214188493119e+07 -2.099015961896e+07 2.607119351064e-05 8.806487711594e-07 3.847360930659e-04 0.000000000000e+00 2.559242104901e+07 2.814253877293e+07  3.723887295993e-04
3.200000000000e+01 1.772216944290e+06 1.000000000000e+00 4.581188528851e+01 0.000000000000e+00 1.843995953288e-02 -4.380337719972e+07 -1.464079224131e+04 -1.211516546722e+07 -2.114458367747e+07 2.593248186315e-05 8.792788026962e-07 3.914642810436e-04 0.000000000000e+00 2.568770878147e+07 2.827627420666e+07  3.791667917605e-04
3.300000000000e+01 1.804125471630e+06 1.000000000000e+00 4.612855743917e+01 0.000000000000e+00 1.864235559840e-02 -4.395545930233e+07 -1.465913458733e+04 -1.208875493082e+07 -2.129305897185e+07 2.579851470029e-05 8.779162284201e-07 3.979600404725e-04 0.000000000000e+00 2.577909106833e+07 2.840591257522e+07  3.857114095150e-04
3.400000000000e+01 1.835622427100e+06 1.000000000000e+00 4.643364730800e+01 0.000000000000e+00 1.883685343398e-02 -4.410183489202e+07 -1.467839707070e+04 -1.206262237701e+07 -2.143585093390e+07 2.566540853117e-05 8.764853010842e-07 4.042343796335e-04 0.000000000000e+00 2.586676940098e+07 2.853170756968e+07  3.920352166025e-04
3.500000000000e+01 1.866724724140e+06 1.000000000000e+00 4.672750835819e+01 0.000000000000e+00 1.902357941855e-02 -4.424273290918e+07 -1.469816231719e+04 -1.203686138553e+07 -2.157317972339e+07 2.553283721768e-05 8.750170256305e-07 4.102920000692e-04 0.000000000000e+00 2.595092467270e+07 2.865370365152e+07  3.981429758417e-04
3.600000000000e+01 1.897454081370e+06 1.000000000000e+00 4.701043929426e+01 0.000000000000e+00 1.920263210114e-02 -4.437835166390e+07 -1.471768662317e+04 -1.201166639033e+07 -2.170526750667e+07 2.540168684972e-05 8.735666486146e-07 4.161339318411e-04 0.000000000000e+00 2.603176185364e+07 2.877184616134e+07  4.040352465519e-04
3.700000000000e+01 1.927826208290e+06 1.000000000000e+00 4.728270804192e+01 0.000000000000e+00 1.937414819780e-02 -4.450887717195e+07 -1.473406339568e+04 -1.198758471410e+07 -2.183242794751e+07 2.527669863918e-05 8.723500883712e-07 4.217514961895e-04 0.000000000000e+00 2.610962994452e+07 2.888579281761e+07  4.097011515073e-04
3.800000000000e+01 1.957851141680e+06 1.000000000000e+00 4.754456181106e+01 0.000000000000e+00 1.953832863469e-02 -4.463580018326e+07 -1.465499725759e+04 -1.198186763040e+07 -2.196037024536e+07 2.531455785390e-05 8.782235729148e-07 4.267159875044e-04 0.000000000000e+00 2.619267935301e+07 2.898297980785e+07  4.146414693543e-04
3.900000000000e+01 1.987546620950e+06 1.000000000000e+00 4.779623193571e+01 0.000000000000e+00 1.969528196019e-02 -4.475587907754e+07 -1.470427129862e+04 -1.195257047985e+07 -2.207561926502e+07 2.513516251044e-05 8.745632155817e-07 4.320848452549e-04 0.000000000000e+00 2.626135627414e+07 2.909405999615e+07  4.200843506631e-04
4.000000000000e+01 2.016929925280e+06 1.000000000000e+00 4.803793683095e+01 0.000000000000e+00 1.984517445671e-02 -4.487102037594e+07 -1.476286900631e+04 -1.192202203565e+07 -2.218552203563e+07 2.494058862135e-05 8.702102430099e-07 4.373016046625e-04 0.000000000000e+00 2.632618814907e+07 2.920281721410e+07  4.253826968430e-04
4.200000000000e+01 2.074208403470e+06 1.000000000000e+00 4.848775660010e+01 0.000000000000e+00 2.012587603518e-02 -4.508320402914e+07 -1.486172329465e+04 -1.186281962324e+07 -2.238871159503e+07 2.460652228002e-05 8.628667815907e-07 4.470475921863e-04 0.000000000000e+00 2.644491174914e+07 2.940603385314e+07  4.352688567980e-04
4.400000000000e+01 2.129970192110e+06 1.000000000000e+00 4.890720119697e+01 0.000000000000e+00 2.038756491354e-02 -4.528001536905e+07 -1.495813055686e+04 -1.180457594543e+07 -2.257694784218e+07 2.428801883467e-05 8.557050992549e-07 4.562025608280e-04 0.000000000000e+00 2.655384638556e+07 2.959797001899e+07  4.445589102344e-04
5.000000000000e+01 2.281485240722e+06 1.000000000000e+00 4.980573480116e+01 0.000000000000e+00 2.093498722974e-02 -4.570479058708e+07 -1.525246385298e+04 -1.166057839712e+07 -2.297534413403e+07 2.330823014791e-05 8.338403401150e-07 4.763486177480e-04 0.000000000000e+00 2.678023770608e+07 3.003049649276e+07  4.651349501802e-04
6.500000000000e+01 2.612859593381e+06 1.000000000000e+00 5.137611536001e+01 0.000000000000e+00 2.186370413415e-02 -4.640107847984e+07 -1.591790305810e+04 -1.128486976626e+07 -2.362008216492e+07 2.139352099278e-05 7.844077134483e-07 5.142509223276e-04 0.000000000000e+00 2.710201013701e+07 3.085677310344e+07  5.038967174325e-04
8.000000000000e+01 2.867909414203e+06 1.000000000000e+00 5.216638751426e+01 0.000000000000e+00 2.230445552304e-02 -4.673477354390e+07 -1.644222707482e+04 -1.100769949519e+07 -2.391286524580e+07 1.987393304638e-05 7.454579293498e-07 5.354206182572e-04 0.000000000000e+00 2.721844609496e+07 3.133534939633e+07  5.257670256619e-04
1.000000000000e+02 3.168586946530e+06 1.000000000000e+00 5.286387895362e+01 0.000000000000e+00 2.267344130663e-02 -4.700807332445e+07 -1.698127166924e+04 -1.070516895960e+07 -2.414727937938e+07 1.842960901589e-05 7.054146166211e-07 5.553642773978e-04 0.000000000000e+00 2.728684055448e+07 3.179000493741e+07  5.463840018097e-04
1.860000000000e+02 3.767070137304e+06 1.000000000000e+00 5.367399317868e+01 0.000000000000e+00 2.311209652039e-02 -4.721696368431e+07 -1.802696158595e+04 -1.000753987117e+07 -2.428232957322e+07 1.568697427819e-05 6.277347942373e-07 5.862923650249e-04 0.000000000000e+00 2.716894437623e+07 3.251392188879e+07  5.786094082814e-04
2.720000000000e+02 4.057393745366e+06 1.000000000000e+00 5.333862578740e+01 0.000000000000e+00 2.277587582598e-02 -4.700085668017e+07 -1.860116689353e+04 -9.768843254817e+06 -2.402761504950e+07 1.425298069361e-05 5.850795428167e-07 5.856974141799e-04 0.000000000000e+00 2.693243832816e+07 3.253695824628e+07  5.787034659075e-04
3.580000000000e+02 4.198760828878e+06 1.000000000000e+00 5.291604569850e+01 0.000000000000e+00 2.242404700687e-02 -4.676191534261e+07 -1.895768173453e+04 -9.629740954812e+06 -2.376573980069e+07 1.340114970450e-05 5.585955831996e-07 5.811372760815e-04 0.000000000000e+00 2.671913203270e+07 3.246113895147e+07  5.745547431849e-04
4.440000000000e+02 4.270890553149e+06 1.000000000000e+00 5.250802911794e+01 0.000000000000e+00 2.209482778134e-02 -4.654607587300e+07 -1.920961269526e+04 -9.550509728914e+06 -2.353403257815e+07 1.281177602397e-05 5.398807118310e-07 5.754738819205e-04 0.000000000000e+00 2.654353939336e+07 3.235558047892e+07  5.691769165280e-04
5.300000000000e+02 4.309855588322e+06 1.000000000000e+00 5.214927465920e+01 0.000000000000e+00 2.180949580682e-02 -4.636247571010e+07 -1.939315009809e+04 -9.503637263918e+06 -2.333905785830e+07 1.238929248029e-05 5.262465047639e-07 5.699729410259e-04 0.000000000000e+00 2.640172361077e+07 3.224959581738e+07  5.638811199214e-04
6.160000000000e+02 4.332371405394e+06 1.000000000000e+00 5.184945747612e+01 0.000000000000e+00 2.157301155509e-02 -4.621229429437e+07 -1.952695166983e+04 -9.476382229522e+06 -2.318069979782e+07 1.208558853209e-05 5.163069594347e-07 5.651034000568e-04 0.000000000000e+00 2.628979210724e+07 3.215425468048e+07  5.591592856721e-04
7.020000000000e+02 4.346181928998e+06 1.000000000000e+00 5.161929376212e+01 0.000000000000e+00 2.139160499489e-02 -4.609825346699e+07 -1.962319716924e+04 -9.459877411534e+06 -2.306084220380e+07 1.186953719965e-05 5.091572937637e-07 5.612645826614e-04 0.000000000000e+00 2.620632436077e+07 3.207866480537e+07  5.554256426778e-04
7.880000000000e+02 4.355800657703e+06 1.000000000000e+00 5.141141553677e+01 0.000000000000e+00 2.122813163540e-02 -4.599946486151e+07 -1.969261477740e+04 -9.458484880703e+06 -2.295794103984e+07 1.171678502757e-05 5.040005571576e-07 5.574942620022e-04 0.000000000000e+00 2.613863026068e+07 3.200306767616e+07  5.517298767010e-04
8.740000000000e+02 4.364186902747e+06 1.000000000000e+00 5.110955643582e+01 0.000000000000e+00 2.099704573931e-02 -4.584965777578e+07 -1.981098565166e+04 -9.437210668622e+06 -2.280081488988e+07 1.144493407039e-05 4.952072922125e-07 5.524483328810e-04 0.000000000000e+00 2.602922777809e+07 3.190379080411e+07  5.468163749949e-04
9.370000000000e+02 4.369560866174e+06 1.000000000000e+00 5.085470718014e+01 0.000000000000e+00 2.080711076842e-02 -4.572603954665e+07 -1.988157101561e+04 -9.432397628854e+06 -2.267300590709e+07 1.128927750603e-05 4.899638080337e-07 5.478799121403e-04 0.000000000000e+00 2.594381436086e+07 3.181184435775e+07  5.423240707722e-04
1.000000000000e+03 4.373750967670e+06 1.000000000000e+00 5.063409317228e+01 0.000000000000e+00 2.064808599400e-02 -4.561738890619e+07 -1.993203960415e+04 -9.426949595632e+06 -2.256150135011e+07 1.118327489263e-05 4.862147128851e-07 5.439406698294e-04 0.000000000000e+00 2.586861328398e+07 3.173200814633e+07  5.384368014076e-04
1.100000000000e+03 4.377896344590e+06 1.000000000000e+00 5.039952478691e+01 0.000000000000e+00 2.048171186900e-02 -4.550123459297e+07 -1.997932873568e+04 -9.421211927767e+06 -2.244277806801e+07 1.108785604841e-05 4.827018059715e-07 5.397440613005e-04 0.000000000000e+00 2.578840819625e+07 3.164667464854e+07  5.342870827648e-04
1.200000000000e+03 4.381157757110e+06 1.000000000000e+00 5.020666365626e+01 0.000000000000e+00 2.034344839500e-02 -4.540618663570e+07 -2.002235590885e+04 -9.416504809763e+06 -2.234530038870e+07 1.099760923000e-05 4.795055016789e-07 5.362982975951e-04 0.000000000000e+00 2.572266394472e+07 3.157703147004e+07  5.308855828529e-04
1.300000000000e+03 4.384063158280e+06 1.000000000000e+00 5.002355940255e+01 0.000000000000e+00 2.021184910640e-02 -4.531614750097e+07 -2.006425258835e+04 -9.412189377649e+06 -2.225286037058e+07 1.090843356134e-05 4.763931769155e-07 5.330250986864e-04 0.000000000000e+00 2.566039908307e+07 3.151106685891e+07  5.276561017635e-04
1.400000000000e+03 4.386802694110e+06 1.000000000000e+00 4.983346618981e+01 0.000000000000e+00 2.007587303840e-02 -4.522270340922e+07 -2.010641970087e+04 -9.408013047809e+06 -2.215699579271e+07 1.081852979081e-05 4.732607628428e-07 5.296195351878e-04 0.000000000000e+00 2.559590408325e+07 3.144247048319e+07  5.242946307635e-04
1.500000000000e+03 4.389442600510e+06 1.000000000000e+00 4.962660281772e+01 0.000000000000e+00 1.992907992300e-02 -4.512095854040e+07 -2.014964498775e+04 -9.403869032446e+06 -2.205278189323e+07 1.072682293791e-05 4.700497415317e-07 5.259026537779e-04 0.000000000000e+00 2.552586982203e+07 3.136756835772e+07  5.206227657062e-04
1.600000000000e+03 4.392003663130e+06 1.000000000000e+00 4.939698227315e+01 0.000000000000e+00 1.976752180740e-02 -4.500792650795e+07 -2.019441651288e+04 -9.399718252594e+06 -2.193721527701e+07 1.063268125483e-05 4.667238568076e-07 5.217643512842e-04 0.000000000000e+00 2.544828667919e+07 3.128412928613e+07  5.165307267122e-04
1.700000000000e+03 4.394490967350e+06 1.000000000000e+00 4.914090603614e+01 0.000000000000e+00 1.958875601360e-02 -4.488176403117e+07 -2.024104281255e+04 -9.395537769113e+06 -2.180844141574e+07 1.053568697415e-05 4.632601888324e-07 5.171365972521e-04 0.000000000000e+00 2.536191440534e+07 3.119080879022e+07  5.119506962941e-04
1.800000000000e+03 4.396904398280e+06 1.000000000000e+00 4.885614509573e+01 0.000000000000e+00 1.939130946880e-02 -4.474136037470e+07 -2.028969015469e+04 -9.391312869149e+06 -2.166534240578e+07 1.043557384427e-05 4.596463862734e-07 5.119784160236e-04 0.000000000000e+00 2.526600521654e+07 3.108683592006e+07  5.068418342371e-04
1.900000000000e+03 4.399243705860e+06 1.000000000000e+00 4.854145211274e+01 0.000000000000e+00 1.917434646962e-02 -4.458609915532e+07 -2.034046977523e+04 -9.387051288176e+06 -2.150729900721e+07 1.033223576017e-05 4.558741858906e-07 5.062665199414e-04 0.000000000000e+00 2.516014981690e+07 3.097181681956e+07  5.011809081875e-04
2.000000000000e+03 4.401508073670e+06 1.000000000000e+00 4.819625178811e+01 0.000000000000e+00 1.893748703050e-02 -4.441569067957e+07 -2.039344207285e+04 -9.382739930679e+06 -2.133401897615e+07 1.022557799149e-05 4.519391009240e-07 4.999905406378e-04 0.000000000000e+00 2.504414986213e+07 3.084563804638e+07  4.949575978315e-04