 TITLE = "Profiles along polylines"
 VARIABLES = "DIST" "PRESSURE1" "SATURATION1" "VELOCITY_X1" "VELOCITY_Y1" "TEMPERATURE1" "DISPLACEMENT_X1" "DISPLACEMENT_Y1" "STRESS_XX" "STRESS_XY" "STRESS_YY" "STRESS_ZZ" "STRAIN_XX" "STRAIN_XY" "STRAIN_YY" "STRAIN_PLS"  p_(1st_Invariant)  q_(2nd_Invariant)   Effective_Strain
 ZONE T="TIME=0.000000000000e+00"
0.000000000000e+00 -7.000000000000e+07 0.000000000000e+00 0.000000000000e+00 0.000000000000e+00 2.500000000000e+01 0.000000000000e+00 0.000000000000e+00 0.000000000000e+00 0.000000000000e+00 0.000000000000e+00 0.000000000000e+00 0.000000000000e+00 0.000000000000e+00 0.000000000000e+00 0.000000000000e+00 -0.000000000000e+00 0.000000000000e+00  0.000000000000e+00
1.856488293236e-01 -7.000000000000e+07 0.000000000000e+00 0.000000000000e+00 0.000000000000e+00 2.500000000000e+01 0.000000000000e+00 0.000000000000e+00 0.000000000000e+00 0.000000000000e+00 0.000000000000e+00 0.000000000000e+00 0.000000000000e+00 0.000000000000e+00 0.000000000000e+00 0.000000000000e+00 -0.000000000000e+00 0.000000000000e+00  0.000000000000e+00
3.329966101904e-01 -7.000000000000e+07 0.000000000000e+00 0.000000000000e+00 0.000000000000e+00 2.500000000000e+01 0.000000000000e+00 0.000000000000e+00 0.000000000000e+00 0.000000000000e+00 0.000000000000e+00 0.000000000000e+00 0.000000000000e+00 0.000000000000e+00 0.000000000000e+00 0.000000000000e+00 -0.000000000000e+00 0.000000000000e+00  0.000000000000e+00
4.500000000000e-01 -7.000000000000e+07 6.684759947500e-01 0.000000000000e+00 0.000000000000e+00 2.500000000000e+01 0.000000000000e+00 0.000000000000e+00 0.000000000000e+00 0.000000000000e+00 0.000000000000e+00 0.000000000000e+00 0.000000000000e+00 0.000000000000e+00 0.000000000000e+00 0.000000000000e+00 -0.000000000000e+00 0.000000000000e+00  0.000000000000e+00
5.425413849766e-01 -7.000000000000e+07 6.684759947500e-01 0.000000000000e+00 0.000000000000e+00 2.500000000000e+01 0.000000000000e+00 0.000000000000e+00 0.000000000000e+00 0.000000000000e+00 0.000000000000e+00 0.000000000000e+00 0.000000000000e+00 0.000000000000e+00 0.000000000000e+00 0.000000000000e+00 -0.000000000000e+00 0.000000000000e+00  0.000000000000e+00
6.536499690359e-01 -7.000000000000e+07 6.684759947500e-01 0.000000000000e+00 0.000000000000e+00 2.500000000000e+01 0.000000000000e+00 0.000000000000e+00 0.000000000000e+00 0.000000000000e+00 0.000000000000e+00 0.000000000000e+00 0.000000000000e+00 0.000000000000e+00 0.000000000000e+00 0.000000000000e+00 -0.000000000000e+00 0.000000000000e+00  0.000000000000e+00
7.871337589362e-01 -7.000000000000e+07 6.684759947500e-01 0.000000000000e+00 0.000000000000e+00 2.500000000000e+01 0.000000000000e+00 0.000000000000e+00 0.000000000000e+00 0.000000000000e+00 0.000000000000e+00 0.000000000000e+00 0.000000000000e+00 0.000000000000e+00 0.000000000000e+00 0.000000000000e+00 -0.000000000000e+00 0.000000000000e+00  0.000000000000e+00
9.474533848814e-01 -7.000000000000e+07 6.504857124747e-01 0.000000000000e+00 0.000000000000e+00 2.500000000000e+01 0.000000000000e+00 0.000000000000e+00 0.000000000000e+00 0.000000000000e+00 0.000000000000e+00 0.000000000000e+00 0.000000000000e+00 0.000000000000e+00 0.000000000000e+00 0.000000000000e+00 -0.000000000000e+00 0.000000000000e+00  0.000000000000e+00
1.140000000000e+00 1.000000000000e+05 9.737398629779e-01 0.000000000000e+00 0.000000000000e+00 2.500000000000e+01 0.000000000000e+00 0.000000000000e+00 -3.481731977959e+07 4.424821975441e+07 -2.069284027590e+07 -1.515152301665e+07 0.000000000000e+00 0.000000000000e+00 0.000000000000e+00 0.000000000000e+00 2.355389435738e+07 7.862690502985e+07  0.000000000000e+00
1.240000000000e+00 1.000000000000e+05 1.000000000000e+00 0.000000000000e+00 0.000000000000e+00 2.500000000000e+01 0.000000000000e+00 0.000000000000e+00 -4.802037371233e+07 8.691162604822e+07 -3.467332748008e+07 -2.180506035772e+07 0.000000000000e+00 0.000000000000e+00 0.000000000000e+00 0.000000000000e+00 3.483292051671e+07 1.522379109325e+08  0.000000000000e+00
1.487693532361e+00 1.000000000000e+05 1.000000000000e+00 0.000000000000e+00 0.000000000000e+00 2.500000000000e+01 0.000000000000e+00 0.000000000000e+00 -5.572657207661e+07 8.007637840718e+07 -2.584539285106e+07 -2.146853947830e+07 0.000000000000e+00 0.000000000000e+00 0.000000000000e+00 0.000000000000e+00 3.434683480199e+07 1.424061318689e+08  0.000000000000e+00
1.823812918126e+00 1.000000000000e+05 1.000000000000e+00 0.000000000000e+00 0.000000000000e+00 2.500000000000e+01 0.000000000000e+00 0.000000000000e+00 -5.180935603195e+07 5.781037342646e+07 -1.646010702244e+07 -1.747778891632e+07 0.000000000000e+00 0.000000000000e+00 0.000000000000e+00 0.000000000000e+00 2.858241732357e+07 1.060223967773e+08  0.000000000000e+00
2.280000000000e+00 1.000000000000e+05 1.000000000000e+00 0.000000000000e+00 0.000000000000e+00 2.500000000000e+01 0.000000000000e+00 0.000000000000e+00 -4.412650038076e+07 3.434517957524e+07 -1.549832034921e+07 -1.488439621899e+07 0.000000000000e+00 0.000000000000e+00 0.000000000000e+00 0.000000000000e+00 2.483640564965e+07 6.615360311765e+07  0.000000000000e+00
2.850000000000e+00 1.000000000000e+05 1.000000000000e+00 0.000000000000e+00 0.000000000000e+00 2.500000000000e+01 0.000000000000e+00 0.000000000000e+00 -3.935325647588e+07 2.028092039645e+07 -1.600731363405e+07 -1.360512103298e+07 0.000000000000e+00 0.000000000000e+00 0.000000000000e+00 0.000000000000e+00 2.298856371430e+07 4.290492074352e+07  0.000000000000e+00
3.420000000000e+00 1.000000000000e+05 1.000000000000e+00 0.000000000000e+00 0.000000000000e+00 2.500000000000e+01 0.000000000000e+00 0.000000000000e+00 -3.706013682730e+07 1.339603572887e+07 -1.648380336989e+07 -1.306013205916e+07 0.000000000000e+00 0.000000000000e+00 0.000000000000e+00 0.000000000000e+00 2.220135741878e+07 3.230967263963e+07  0.000000000000e+00
3.972609728322e+00 1.000000000000e+05 1.000000000000e+00 0.000000000000e+00 0.000000000000e+00 2.500000000000e+01 0.000000000000e+00 0.000000000000e+00 -3.584340433219e+07 9.495138118823e+06 -1.672230176879e+07 -1.276666183030e+07 0.000000000000e+00 0.000000000000e+00 0.000000000000e+00 0.000000000000e+00 2.177745597709e+07 2.696984966991e+07  0.000000000000e+00
4.633649783484e+00 1.000000000000e+05 1.000000000000e+00 0.000000000000e+00 0.000000000000e+00 2.500000000000e+01 0.000000000000e+00 0.000000000000e+00 -3.493324290466e+07 6.523892093464e+06 -1.693388653914e+07 -1.255708883314e+07 0.000000000000e+00 0.000000000000e+00 0.000000000000e+00 0.000000000000e+00 2.147473942565e+07 2.344346888845e+07  0.000000000000e+00
5.424552109452e+00 1.000000000000e+05 1.000000000000e+00 0.000000000000e+00 0.000000000000e+00 2.500000000000e+01 0.000000000000e+00 0.000000000000e+00 -3.448968415275e+07 4.690755759853e+06 -1.704025705062e+07 -1.245593236101e+07 0.000000000000e+00 0.000000000000e+00 0.000000000000e+00 0.000000000000e+00 2.132862452146e+07 2.171409559093e+07  0.000000000000e+00
6.370375975935e+00 1.000000000000e+05 1.000000000000e+00 0.000000000000e+00 0.000000000000e+00 2.500000000000e+01 0.000000000000e+00 0.000000000000e+00 -3.420589421063e+07 3.396440207376e+06 -1.706116763020e+07 -1.237706855225e+07 0.000000000000e+00 0.000000000000e+00 0.000000000000e+00 0.000000000000e+00 2.121471013103e+07 2.075566067134e+07  0.000000000000e+00
7.501825115922e+00 1.000000000000e+05 1.000000000000e+00 0.000000000000e+00 0.000000000000e+00 2.500000000000e+01 0.000000000000e+00 0.000000000000e+00 -3.403088687216e+07 2.434175409426e+06 -1.703596810350e+07 -1.231700649270e+07 0.000000000000e+00 0.000000000000e+00 0.000000000000e+00 0.000000000000e+00 2.112795382279e+07 2.022547556072e+07  0.000000000000e+00
8.855503976798e+00 1.000000000000e+05 1.000000000000e+00 0.000000000000e+00 0.000000000000e+00 2.500000000000e+01 0.000000000000e+00 0.000000000000e+00 -3.396830824094e+07 1.786717201144e+06 -1.697461542532e+07 -1.227982709988e+07 0.000000000000e+00 0.000000000000e+00 0.000000000000e+00 0.000000000000e+00 2.107425025538e+07 2.000463692847e+07  0.000000000000e+00
1.047459878112e+01 1.000000000000e+05 1.000000000000e+00 0.000000000000e+00 0.000000000000e+00 2.500000000000e+01 0.000000000000e+00 0.000000000000e+00 -3.395237703831e+07 1.268737112457e+06 -1.687701187350e+07 -1.224576667354e+07 0.000000000000e+00 0.000000000000e+00 0.000000000000e+00 0.000000000000e+00 2.102505186178e+07 1.992299706752e+07  0.000000000000e+00
1.241154661369e+01 1.000000000000e+05 1.000000000000e+00 0.000000000000e+00 0.000000000000e+00 2.500000000000e+01 0.000000000000e+00 0.000000000000e+00 -3.397085603022e+07 8.493812196668e+05 -1.677136773138e+07 -1.221961712848e+07 0.000000000000e+00 0.000000000000e+00 0.000000000000e+00 0.000000000000e+00 2.098728029670e+07 1.992468212785e+07  0.000000000000e+00
1.472871140527e+01 1.000000000000e+05 1.000000000000e+00 0.000000000000e+00 0.000000000000e+00 2.500000000000e+01 0.000000000000e+00 0.000000000000e+00 -3.400084049311e+07 4.582592598400e+05 -1.666727907758e+07 -1.219738587121e+07 0.000000000000e+00 0.000000000000e+00 0.000000000000e+00 0.000000000000e+00 2.095516848063e+07 1.996350344212e+07  0.000000000000e+00
1.750000000000e+01 1.000000000000e+05 1.000000000000e+00 0.000000000000e+00 0.000000000000e+00 2.500000000000e+01 0.000000000000e+00 0.000000000000e+00 -3.402086603505e+07 4.407096311865e+04 -1.661662761850e+07 -1.218819809606e+07 0.000000000000e+00 0.000000000000e+00 0.000000000000e+00 0.000000000000e+00 2.094189724987e+07 1.998994179241e+07  0.000000000000e+00
 TITLE = "Profiles along polylines"
 VARIABLES = "DIST" "PRESSURE1" "SATURATION1" "VELOCITY_X1" "VELOCITY_Y1" "TEMPERATURE1" "DISPLACEMENT_X1" "DISPLACEMENT_Y1" "STRESS_XX" "STRESS_XY" "STRESS_YY" "STRESS_ZZ" "STRAIN_XX" "STRAIN_XY" "STRAIN_YY" "STRAIN_PLS"  p_(1st_Invariant)  q_(2nd_Invariant)   Effective_Strain
 ZONE T="TIME=1.000000000000e-03"
0.000000000000e+00 -7.000000000000e+07 0.000000000000e+00 0.000000000000e+00 0.000000000000e+00 2.500000000000e+01 0.000000000000e+00 6.371339107338e-05 6.738861818259e+07 -4.168998819274e-01 6.754273835374e+07 4.047940696090e+07 1.749098729410e-04 -5.419698465056e-12 1.759116540535e-04 0.000000000000e+00 -5.847025449908e+07 2.698660137623e+07  1.754129089455e-04
1.856488293236e-01 -7.000000000000e+07 0.000000000000e+00 0.000000000000e+00 0.000000000000e+00 2.500000000000e+01 3.245992863858e-05 6.371326739778e-05 6.735115856720e+07 -5.181196555620e+01 6.756098254729e+07 4.047364233435e+07 1.747038555136e-04 -6.735555522306e-10 1.760677113841e-04 0.000000000000e+00 -5.846192781628e+07 2.698304008797e+07  1.753897605747e-04
3.329966101904e-01 -7.000000000000e+07 0.000000000000e+00 0.000000000000e+00 0.000000000000e+00 2.500000000000e+01 5.846802614128e-05 6.371298575971e-05 6.917305793103e+07 -9.750846041780e+01 6.714530460610e+07 4.089550876114e+07 1.838040696043e-04 -1.267609985431e-09 1.706236729922e-04 0.000000000000e+00 -5.907129043276e+07 2.732016977035e+07  1.775811035175e-04
4.500000000000e-01 -7.000000000000e+07 6.684759947500e-01 -2.131518459023e-14 -1.849270749377e-07 3.310906251120e+01 7.112439628240e-05 6.371264291014e-05 1.891221380488e+07 -1.356577003752e+02 3.016347887230e+07 1.470467850954e+07 -1.745157425102e-04 -3.957491888790e-07 1.477305548059e-04 0.000000000000e+00 -2.126012372891e+07 1.384320822001e+07  2.793954876565e-04
5.425413849766e-01 -6.999999999989e+07 6.684759947436e-01 -3.761932360920e-12 -1.848676933318e-07 2.807634570670e+01 8.631380157839e-06 6.360561882845e-05 -3.411935064877e+05 -1.096238972246e+02 -1.264029650524e+05 -1.747386292804e+05 -7.088772373182e-04 -9.337051183167e-07 2.058458886680e-04 0.000000000000e+00 2.141117002735e+05 1.951648167280e+05  8.311447213076e-04
6.536499690359e-01 -6.999999993365e+07 6.684759878566e-01 -3.299515754770e-09 -1.848325880393e-07 2.599809537035e+01 -7.089840750542e-05 6.347794796449e-05 -3.256158452036e+05 -9.605783388243e+01 -1.130690536277e+05 -1.571563414564e+05 -7.174142904063e-04 -8.181582065696e-07 1.877534339707e-04 0.000000000000e+00 1.986137467626e+05 1.942916458867e+05  8.274259004883e-04
7.871337589362e-01 -6.999993003809e+07 6.684774325879e-01 -3.816477680429e-06 -1.848056506542e-07 2.525080984488e+01 -1.655537739475e-04 6.331218908462e-05 -2.987019530504e+05 -9.370602067799e+01 -1.011140477512e+05 -1.408314932015e+05 -6.723189930474e-04 -7.981269900018e-07 1.691436951351e-04 0.000000000000e+00 1.802158313344e+05 1.810270567780e+05  7.709363448624e-04
9.474533848814e-01 -6.991580129891e+07 6.507528602308e-01 -2.437363284039e-03 -1.580322805186e-07 2.505445512082e+01 -9.127064693141e-05 6.309100097900e-05 9.157271781530e+05 -1.043525412362e+02 5.958590515479e+05 5.284935137651e+05 1.649102356226e-03 -8.888071335572e-07 2.868879369301e-04 0.000000000000e+00 -6.800265811554e+05 3.583320459230e+05  1.526020336312e-03
1.140000000000e+00 1.349371324694e+05 9.738732786163e-01 -2.019618020084e-02 -7.176476130584e-04 2.500485102010e+01 3.100745879409e-06 6.277264768609e-05 -3.503749028782e+07 4.424810591047e+07 -2.066703133927e+07 -1.521616785812e+07 -1.837665164518e-04 -8.193496665845e-07 4.529483472598e-05 0.000000000000e+00 2.364022982840e+07 7.866535478192e+07  2.101129282413e-04
1.240000000000e+00 1.413412552946e+05 1.000000000000e+00 -1.912507446065e-02 -1.252585888065e-03 2.500280428798e+01 2.342260226425e-06 6.276023517941e-05 -4.824536635869e+07 8.691259168866e+07 -3.460738097929e+07 -2.185371942394e+07 -6.549532976472e-06 7.173329043456e-08 4.256778203093e-06 0.000000000000e+00 3.490215558731e+07 1.522628666492e+08  9.429310106778e-06
1.487693532361e+00 1.556961197234e+05 1.000000000000e+00 -1.668949622423e-02 -1.060120106664e-03 2.500075208135e+01 1.007205907107e-06 6.274905726847e-05 -5.588956605849e+07 8.007795932310e+07 -2.581996409926e+07 -2.151011137594e+07 -4.509963129012e-06 1.174394689021e-07 2.488595550235e-06 0.000000000000e+00 3.440654717790e+07 1.424422341036e+08  6.147985482973e-06
1.823812918126e+00 1.717928622387e+05 1.000000000000e+00 -1.407500256654e-02 -8.343706375937e-04 2.500007432559e+01 -2.022311092083e-07 6.275065564967e-05 -5.192630887834e+07 5.781194309415e+07 -1.646174105410e+07 -1.751340501447e+07 -3.021079220091e-06 1.166038854940e-07 1.262191041132e-06 0.000000000000e+00 2.863381831563e+07 1.060575648087e+08  3.817592749740e-06
2.280000000000e+00 1.897522717761e+05 1.000000000000e+00 -1.080450907902e-02 -6.178745246235e-04 2.500000402545e+01 -1.291330815549e-06 6.276123750717e-05 -4.420660751258e+07 3.434644107203e+07 -1.550963572908e+07 -1.491182511693e+07 -1.956620115688e-06 9.371119000362e-08 5.985020997159e-07 0.000000000000e+00 2.487602278619e+07 6.618204412288e+07  2.320334814087e-06
2.850000000000e+00 2.074446307919e+05 1.000000000000e+00 -8.741383585309e-03 -5.169176379832e-04 2.499999994532e+01 -2.193514522686e-06 6.277702723094e-05 -3.940868234308e+07 2.028195655796e+07 -1.601829752691e+07 -1.362504398945e+07 -1.318679541136e-06 7.697199747679e-08 3.320223628014e-07 0.000000000000e+00 2.301734128648e+07 4.292889668980e+07  1.518143518849e-06
3.420000000000e+00 2.215970185909e+05 1.000000000000e+00 -7.354823483911e-03 -4.556995872020e-04 2.500000000096e+01 -2.814088967188e-06 6.279298340523e-05 -3.709937390302e+07 1.339695750627e+07 -1.649093674931e+07 -1.307404319569e+07 -9.406777413468e-07 6.847489300060e-08 2.517452643162e-07 0.000000000000e+00 2.222145128267e+07 3.233009574391e+07  1.095046981055e-06
3.972609728322e+00 2.330505661732e+05 1.000000000000e+00 -6.170055220174e-03 -4.143423897757e-04 2.500000000020e+01 -3.245941029791e-06 6.280828948132e-05 -3.587082731174e+07 9.495996803945e+06 -1.672469630464e+07 -1.277560708496e+07 -6.863154956399e-07 6.378803761400e-08 2.433124132036e-07 0.000000000000e+00 2.179037690045e+07 2.698705770673e+07  8.422741303552e-07
4.633649783484e+00 2.447525257874e+05 1.000000000000e+00 -5.063055921838e-03 -3.843603950768e-04 2.499999999998e+01 -3.608586962241e-06 6.282643811761e-05 -3.494912643915e+07 6.524700684440e+06 -1.693018802465e+07 -1.256074433914e+07 -4.541839155149e-07 6.006675822165e-08 2.731493323888e-07 0.000000000000e+00 2.148001960098e+07 2.345681294307e+07  6.448082401236e-07
5.424552109452e+00 2.565441707821e+05 1.000000000000e+00 -4.298457931970e-03 -3.623238966003e-04 2.500000000001e+01 -3.877965194377e-06 6.284829241800e-05 -3.449547381644e+07 4.691544919347e+06 -1.703023929016e+07 -1.245466393198e+07 -2.621577294789e-07 5.862327672089e-08 3.249751672093e-07 0.000000000000e+00 2.132679234619e+07 2.172361813396e+07  5.194615983124e-07
6.370375975935e+00 2.680807782276e+05 1.000000000000e+00 -3.547741570992e-03 -3.462440019069e-04 2.499999999998e+01 -4.028294326879e-06 6.287464620490e-05 -3.420202849484e+07 3.397222958938e+06 -1.704427057483e+07 -1.237083972090e+07 -8.777286367582e-08 5.814725887729e-08 3.962483205161e-07 0.000000000000e+00 2.120571293019e+07 2.076146862662e+07  4.578645739440e-07
7.501825115922e+00 2.794199820965e+05 1.000000000000e+00 -2.776495605589e-03 -3.349118681415e-04 2.499999999999e+01 -4.020679008518e-06 6.290641150222e-05 -3.401758395179e+07 2.434949701595e+06 -1.701156209260e+07 -1.230569381331e+07 7.392323651584e-08 5.751884684163e-08 4.863237421601e-07 0.000000000000e+00 2.111161328590e+07 2.022782773086e+07  4.647042664928e-07
8.855503976798e+00 2.902924433088e+05 1.000000000000e+00 -2.217119764407e-03 -3.264088149119e-04 2.499999999998e+01 -3.814591521912e-06 6.294428952693e-05 -3.394676993017e+07 1.787475263351e+06 -1.694335265557e+07 -1.226398677572e+07 2.116395024504e-07 5.631319256227e-08 5.728336932927e-07 0.000000000000e+00 2.105136978715e+07 2.000407653801e+07  5.110861065448e-07
1.047459878112e+01 3.001110515483e+05 1.000000000000e+00 -1.628522891811e-03 -3.210050958718e-04 2.499999999996e+01 -3.355505228986e-06 6.298767288077e-05 -3.392312191645e+07 1.269440440817e+06 -1.683898043887e+07 -1.222558070658e+07 3.368543249288e-07 5.224724962452e-08 6.628316563721e-07 0.000000000000e+00 2.099589435397e+07 1.991988348192e+07  5.811439202500e-07
1.241154661369e+01 3.083650975032e+05 1.000000000000e+00 -1.171255185209e-03 -3.171848420128e-04 2.500000000001e+01 -2.591699773527e-06 6.303339598653e-05 -3.393533692069e+07 8.499675464709e+05 -1.672798228865e+07 -1.219594576281e+07 4.400590577708e-07 4.355570544723e-08 7.322371479850e-07 0.000000000000e+00 2.095308832405e+07 1.991944032095e+07  6.428739567281e-07
1.472871140527e+01 3.143751555563e+05 1.000000000000e+00 -6.076283789138e-04 -3.149048949761e-04 2.499999999966e+01 -1.474658314134e-06 6.307277090261e-05 -3.396064839167e+07 4.586279463492e+05 -1.661946603141e+07 -1.217098432683e+07 5.122206910721e-07 2.738814067610e-08 7.952843526616e-07 0.000000000000e+00 2.091703291664e+07 1.995691725624e+07  6.998117375271e-07
1.750000000000e+01 3.166832744713e+05 1.000000000000e+00 -2.790489179235e-04 -3.137548235771e-04 2.500000000003e+01 0.000000000000e+00 6.308983098510e-05 -3.397867146448e+07 4.409153139099e+04 -1.656737509013e+07 -1.216076396643e+07 5.482449490510e-07 1.527928802697e-09 8.103976672110e-07 0.000000000000e+00 2.090227017368e+07 1.998254507068e+07  7.162593658090e-07
 TITLE = "Profiles along polylines"
 VARIABLES = "DIST" "PRESSURE1" "SATURATION1" "VELOCITY_X1" "VELOCITY_Y1" "TEMPERATURE1" "DISPLACEMENT_X1" "DISPLACEMENT_Y1" "STRESS_XX" "STRESS_XY" "STRESS_YY" "STRESS_ZZ" "STRAIN_XX" "STRAIN_XY" "STRAIN_YY" "STRAIN_PLS"  p_(1st_Invariant)  q_(2nd_Invariant)   Effective_Strain
 ZONE T="TIME=9.000000000000e-01"
0.000000000000e+00 -7.000000000000e+07 0.000000000000e+00 0.000000000000e+00 0.000000000000e+00 2.500000000000e+01 0.000000000000e+00 8.938936532746e-04 5.957896073898e+07 -8.011788880739e-01 6.098267390082e+07 3.616849039194e+07 1.521680572558e-04 -1.041532554497e-11 1.612921928077e-04 0.000000000000e+00 -5.224337501058e+07 2.414295172222e+07  1.569291861944e-04
1.856488293236e-01 -7.000000000000e+07 0.000000000000e+00 0.000000000000e+00 0.000000000000e+00 2.500000000000e+01 2.824399781518e-05 8.938933145038e-04 5.953840906702e+07 -1.135633721278e+02 6.098322867180e+07 3.615649132165e+07 1.519824653449e-04 -1.476323837661e-09 1.613737927760e-04 0.000000000000e+00 -5.222604302015e+07 2.413678177256e+07  1.568890815373e-04
3.329966101904e-01 -7.000000000000e+07 0.000000000000e+00 0.000000000000e+00 0.000000000000e+00 2.500000000000e+01 5.112678508017e-05 8.938925793956e-04 6.278070089735e+07 -2.073054712860e+02 6.029359263813e+07 3.692228806064e+07 1.680796834386e-04 -2.694971126717e-09 1.519134797536e-04 0.000000000000e+00 -5.333219386537e+07 2.470891640520e+07  1.606079566847e-04
4.500000000000e-01 -1.825455417321e+08 4.447347592060e-01 -3.515172207293e-03 -1.464769593405e-07 8.283348462567e+01 5.517654107332e-05 8.938917265964e-04 -1.917901478783e+07 -2.179384711632e+02 7.679612765438e+06 -4.603605171210e+06 -2.794820780698e-02 -5.536494347071e-07 3.925380404113e-04 0.000000000000e+00 5.367669064536e+06 2.328847228461e+07  2.814652982840e-02
5.425413849766e-01 -1.226642315127e+08 5.272211560514e-01 -5.012050668619e-03 -2.127082507706e-07 7.355501941886e+01 -5.352394436548e-03 8.937483381680e-04 -2.381446854120e+07 -5.830990470729e+01 -1.612403619285e+07 -1.411012864279e+07 -4.132763048217e-02 -4.966458760559e-07 -8.576577894578e-03 0.000000000000e+00 1.801621112562e+07 8.870535108123e+06  3.777672680850e-02
6.536499690359e-01 -7.854812253515e+07 6.273424054583e-01 -4.818317047137e-03 -2.543543314769e-07 6.573361624658e+01 -7.733172926861e-03 8.935864920116e-04 -7.473600587776e+06 2.746362292467e+01 -7.928695559134e+06 -5.487802316672e+06 -8.456869608802e-03 2.339172930492e-07 -1.039497122184e-02 0.000000000000e+00 6.963366154527e+06 2.248162141850e+06  9.574192093173e-03
7.871337589362e-01 -5.089559797900e+07 7.335714557578e-01 -4.050383162515e-03 -2.075721953134e-07 5.931954520063e+01 -6.948148993723e-03 8.933391547811e-04 5.138293204945e+06 -2.115335345999e+01 -7.680260801189e+05 1.331245679899e+06 1.621297841897e-02 -1.801705184287e-07 -8.940116328151e-03 0.000000000000e+00 -1.900504268242e+06 5.185805640408e+06  2.208466124629e-02
9.474533848814e-01 -2.984247135388e+07 8.166774406110e-01 -4.852515173949e-03 -1.408305575105e-07 5.367778754723e+01 -2.482569860296e-03 8.928582411743e-04 1.788022394265e+07 -2.760042275674e+02 7.379056727186e+06 8.508129962719e+06 3.991270306912e-02 -2.350824651205e-06 -4.808356050373e-03 0.000000000000e+00 -1.125580354419e+07 9.984624812285e+06  4.252127300610e-02
1.140000000000e+00 3.221762364192e+05 9.953957013209e-01 -8.315130152206e-03 -2.782604270398e-04 4.850921061954e+01 1.842587596650e-04 8.919486647512e-04 -3.886327001801e+07 4.424771998023e+07 -2.342081499927e+07 -2.145315017831e+07 -2.154541231816e-03 -2.586978545297e-06 1.589404498630e-04 0.000000000000e+00 2.791241173186e+07 7.839839837451e+07  2.238252402256e-03
1.240000000000e+00 3.242066392019e+05 1.000000000000e+00 -6.195659568349e-03 -5.131552921038e-04 4.754491137781e+01 2.042525932144e-04 8.919233063587e-04 -5.353014485556e+07 8.691257802055e+07 -3.831022622635e+07 -3.241288364421e+07 1.893562224640e-04 7.071794444335e-08 2.589200543505e-04 0.000000000000e+00 4.141775157537e+07 1.517154253903e+08  2.320932250666e-04
1.487693532361e+00 3.288737998542e+05 1.000000000000e+00 -5.441365883172e-03 -4.678346311733e-04 4.548073206582e+01 2.474928876435e-04 8.918917512815e-04 -6.121054357617e+07 8.007798229290e+07 -2.905702399689e+07 -3.131274831437e+07 1.619516724991e-04 1.191457964269e-07 2.463528856370e-04 0.000000000000e+00 4.052677196248e+07 1.421402736097e+08  2.168429598124e-04
1.823812918126e+00 3.341395924271e+05 1.000000000000e+00 -4.608994579181e-03 -4.155749781711e-04 4.320611496752e+01 2.958766030521e-04 8.918744790833e-04 -5.707922612530e+07 5.781156859406e+07 -1.912016441569e+07 -2.627149035846e+07 1.308851643839e-04 8.878387905552e-08 2.278210646734e-04 0.000000000000e+00 3.415696029982e+07 1.060523766625e+08  1.980277503598e-04
2.280000000000e+00 3.400202934397e+05 1.000000000000e+00 -3.538235720054e-03 -3.661248476381e-04 4.068907690810e+01 3.470955974186e-04 8.918644585710e-04 -4.910145967632e+07 3.434577403229e+07 -1.746105072616e+07 -2.248775740610e+07 9.762635597189e-05 4.415966712505e-08 2.095091443772e-04 0.000000000000e+00 2.968342260286e+07 6.637946056715e+07  1.815802260707e-04
2.850000000000e+00 3.458142124492e+05 1.000000000000e+00 -2.862576151826e-03 -3.433419752950e-04 3.823030640400e+01 3.934423101974e-04 8.918574131409e-04 -4.395508683025e+07 2.028116263827e+07 -1.729903251714e+07 -2.004861160269e+07 6.840452228439e-05 1.799510669924e-08 1.913515197886e-04 0.000000000000e+00 2.710091031669e+07 4.334500157029e+07  1.679442599981e-04
3.420000000000e+00 3.504485616522e+05 1.000000000000e+00 -2.408345892577e-03 -3.295973454163e-04 3.628894648100e+01 4.252137092803e-04 8.918522950616e-04 -4.132026549617e+07 1.339613230467e+07 -1.725129048190e+07 -1.857518831756e+07 4.661159618232e-05 7.174202197824e-09 1.763382825803e-04 0.000000000000e+00 2.571558143188e+07 3.297836384604e+07  1.582669331772e-04
3.972609728322e+00 3.541988347917e+05 1.000000000000e+00 -2.020220842614e-03 -3.203488140399e-04 3.474112344303e+01 4.454073379436e-04 8.918484088190e-04 -3.979241385359e+07 9.495168550752e+06 -1.707855405474e+07 -1.752125289543e+07 2.992160019621e-05 2.260657618331e-09 1.633668689413e-04 0.000000000000e+00 2.479740693459e+07 2.786637197854e+07  1.506513786978e-04
4.633649783484e+00 3.580301911513e+05 1.000000000000e+00 -1.657640409160e-03 -3.136610608574e-04 3.319533788731e+01 4.587556270323e-04 8.918448106810e-04 -3.852569424207e+07 6.523887392252e+06 -1.687876765656e+07 -1.651608718614e+07 1.361460343631e-05 -3.492328901782e-10 1.490957830357e-04 0.000000000000e+00 2.397351636159e+07 2.458160298596e+07  1.427761534223e-04
5.424552109452e+00 3.618906970247e+05 1.000000000000e+00 -1.407245040909e-03 -3.087556241191e-04 3.168500316570e+01 4.630094907562e-04 8.918419148068e-04 -3.774318557191e+07 4.690752326537e+06 -1.661487265162e+07 -1.568616930264e+07 -8.641091655598e-07 -2.550463172684e-10 1.357802212231e-04 0.000000000000e+00 2.334807584206e+07 2.308461617403e+07  1.362143314556e-04
6.370375975935e+00 3.656674933688e+05 1.000000000000e+00 -1.161416025962e-03 -3.051804873803e-04 3.026718839136e+01 4.550591620133e-04 8.918403245926e-04 -3.710736555697e+07 3.396467395839e+06 -1.629694987265e+07 -1.490290090419e+07 -1.395230550636e-05 2.019714435057e-09 1.222018612095e-04 0.000000000000e+00 2.276907211127e+07 2.233014743148e+07  1.297418954127e-04
7.501825115922e+00 3.693795180321e+05 1.000000000000e+00 -9.089023493106e-04 -3.026633816513e-04 2.895768555555e+01 4.316357959921e-04 8.918404745441e-04 -3.655957535108e+07 2.434224823020e+06 -1.597042814193e+07 -1.416170580905e+07 -2.540531175268e-05 3.670724124399e-09 1.080946017514e-04 0.000000000000e+00 2.223056976735e+07 2.195907241021e+07  1.227845669852e-04
8.855503976798e+00 3.729386548895e+05 1.000000000000e+00 -7.257720745936e-04 -3.007762032506e-04 2.779623283947e+01 3.904490600228e-04 8.918430716501e-04 -3.617476447533e+07 1.786808616452e+06 -1.567282223388e+07 -1.355937513900e+07 -3.442801868123e-05 6.790851444641e-09 9.587838856401e-05 0.000000000000e+00 2.180232061607e+07 2.185644343574e+07  1.169566456209e-04
1.047459878112e+01 3.761527329390e+05 1.000000000000e+00 -5.330852722073e-04 -2.995773716530e-04 2.684457941189e+01 3.283462672833e-04 8.918487186024e-04 -3.585183528952e+07 1.268846389621e+06 -1.539150068167e+07 -1.303323566037e+07 -4.130245839118e-05 8.117732164629e-09 8.442497806430e-05 0.000000000000e+00 2.142552387718e+07 2.184645305506e+07  1.109974293922e-04
1.241154661369e+01 3.788546175728e+05 1.000000000000e+00 -3.833975232918e-04 -2.987301023611e-04 2.612776105972e+01 2.436662018251e-04 8.918571734330e-04 -3.563794955345e+07 8.495218860407e+05 -1.516401132621e+07 -1.265121704934e+07 -4.588976237371e-05 1.044950205821e-08 7.573266353853e-05 0.000000000000e+00 2.115105930967e+07 2.188853898089e+07  1.063797954437e-04
1.472871140527e+01 3.808219314875e+05 1.000000000000e+00 -1.988984535369e-04 -2.982245709674e-04 2.565559885442e+01 1.345496879112e-04 8.918650582723e-04 -3.548022160910e+07 4.583298913081e+05 -1.499966141962e+07 -1.238201605613e+07 -4.809074886834e-05 5.246909056810e-09 6.879777702121e-05 0.000000000000e+00 2.095396636162e+07 2.192136982976e+07  1.017565277994e-04
1.750000000000e+01 3.815774611815e+05 1.000000000000e+00 -9.134233618293e-05 -2.979695961118e-04 2.547503917203e+01 0.000000000000e+00 8.918705828474e-04 -3.543764551117e+07 4.416598522326e+04 -1.491983958313e+07 -1.227644038184e+07 -4.934566706997e-05 7.058784913768e-09 6.630112621397e-05 0.000000000000e+00 2.087797515872e+07 2.195929240990e+07  1.005112314412e-04
 TITLE = "Profiles along polylines"
 VARIABLES = "DIST" "PRESSURE1" "SATURATION1" "VELOCITY_X1" "VELOCITY_Y1" "TEMPERATURE1" "DISPLACEMENT_X1" "DISPLACEMENT_Y1" "STRESS_XX" "STRESS_XY" "STRESS_YY" "STRESS_ZZ" "STRAIN_XX" "STRAIN_XY" "STRAIN_YY" "STRAIN_PLS"  p_(1st_Invariant)  q_(2nd_Invariant)   Effective_Strain
 ZONE T="TIME=1.000000000000e+00"
0.000000000000e+00 -7.000000000000e+07 0.000000000000e+00 0.000000000000e+00 0.000000000000e+00 2.500000000000e+01 0.000000000000e+00 9.846073205314e-04 5.909700724091e+07 -7.113488250520e-01 6.056444532937e+07 3.589843577109e+07 1.507907145539e-04 -9.247534725682e-12 1.603290621289e-04 0.000000000000e+00 -5.185329611379e+07 2.396600843188e+07  1.557790548072e-04
1.856488293236e-01 -7.000000000000e+07 0.000000000000e+00 0.000000000000e+00 0.000000000000e+00 2.500000000000e+01 2.798916867809e-05 9.846069599356e-04 5.905731639555e+07 -1.161478265481e+02 6.056252483908e+07 3.588595237039e+07 1.506138661635e-04 -1.509921745126e-09 1.603977210465e-04 0.000000000000e+00 -5.183526453500e+07 2.395945525391e+07  1.557364591669e-04