 TITLE = "Profiles along polylines"
 VARIABLES = "DIST" "PRESSURE1" "SATURATION1" "VELOCITY_X1" "VELOCITY_Y1" "TEMPERATURE1" "DISPLACEMENT_X1" "DISPLACEMENT_Y1" "STRESS_XX" "STRESS_XY" "STRESS_YY" "STRESS_ZZ" "STRAIN_XX" "STRAIN_XY" "STRAIN_YY" "STRAIN_PLS"  p_(1st_Invariant)  q_(2nd_Invariant)   Effective_Strain
 ZONE T="TIME=0.000000000000e+00"
0.000000000000e+00 -7.000000000000e+07 0.000000000000e+00 0.000000000000e+00 0.000000000000e+00 2.500000000000e+01 0.000000000000e+00 0.000000000000e+00 0.000000000000e+00 0.000000000000e+00 0.000000000000e+00 0.000000000000e+00 0.000000000000e+00 0.000000000000e+00 0.000000000000e+00 0.000000000000e+00 -0.000000000000e+00 0.000000000000e+00  0.000000000000e+00
1.856488293236e-01 -7.000000000000e+07 0.000000000000e+00 0.000000000000e+00 0.000000000000e+00 2.500000000000e+01 0.000000000000e+00 0.000000000000e+00 0.000000000000e+00 0.000000000000e+00 0.000000000000e+00 0.000000000000e+00 0.000000000000e+00 0.000000000000e+00 0.000000000000e+00 0.000000000000e+00 -0.000000000000e+00 0.000000000000e+00  0.000000000000e+00
3.329966101904e-01 -7.000000000000e+07 0.000000000000e+00 0.000000000000e+00 0.000000000000e+00 2.500000000000e+01 0.000000000000e+00 0.000000000000e+00 0.000000000000e+00 0.000000000000e+00 0.000000000000e+00 0.000000000000e+00 0.000000000000e+00 0.000000000000e+00 0.000000000000e+00 0.000000000000e+00 -0.000000000000e+00 0.000000000000e+00  0.000000000000e+00
4.500000000000e-01 -7.000000000000e+07 6.684759947500e-01 0.000000000000e+00 0.000000000000e+00 2.500000000000e+01 0.000000000000e+00 0.000000000000e+00 0.000000000000e+00 0.000000000000e+00 0.000000000000e+00 0.000000000000e+00 0.000000000000e+00 0.000000000000e+00 0.000000000000e+00 0.000000000000e+00 -0.000000000000e+00 0.000000000000e+00  0.000000000000e+00
5.425413849766e-01 -7.000000000000e+07 6.684759947500e-01 0.000000000000e+00 0.000000000000e+00 2.500000000000e+01 0.000000000000e+00 0.000000000000e+00 0.000000000000e+00 0.000000000000e+00 0.000000000000e+00 0.000000000000e+00 0.000000000000e+00 0.000000000000e+00 0.000000000000e+00 0.000000000000e+00 -0.000000000000e+00 0.000000000000e+00  0.000000000000e+00
6.536499690359e-01 -7.000000000000e+07 6.684759947500e-01 0.000000000000e+00 0.000000000000e+00 2.500000000000e+01 0.000000000000e+00 0.000000000000e+00 0.000000000000e+00 0.000000000000e+00 0.000000000000e+00 0.000000000000e+00 0.000000000000e+00 0.000000000000e+00 0.000000000000e+00 0.000000000000e+00 -0.000000000000e+00 0.000000000000e+00  0.000000000000e+00
7.871337589362e-01 -7.000000000000e+07 6.684759947500e-01 0.000000000000e+00 0.000000000000e+00 2.500000000000e+01 0.000000000000e+00 0.000000000000e+00 0.000000000000e+00 0.000000000000e+00 0.000000000000e+00 0.000000000000e+00 0.000000000000e+00 0.000000000000e+00 0.000000000000e+00 0.000000000000e+00 -0.000000000000e+00 0.000000000000e+00  0.000000000000e+00
9.474533848814e-01 -7.000000000000e+07 6.504857124747e-01 0.000000000000e+00 0.000000000000e+00 2.500000000000e+01 0.000000000000e+00 0.000000000000e+00 0.000000000000e+00 0.000000000000e+00 0.000000000000e+00 0.000000000000e+00 0.000000000000e+00 0.000000000000e+00 0.000000000000e+00 0.000000000000e+00 -0.000000000000e+00 0.000000000000e+00  0.000000000000e+00
1.140000000000e+00 1.000000000000e+05 9.737398629779e-01 0.000000000000e+00 0.000000000000e+00 2.500000000000e+01 0.000000000000e+00 0.000000000000e+00 3.304572143556e+04 5.605493944878e+02 -4.446166165700e+06 1.775888667205e+05 0.000000000000e+00 0.000000000000e+00 0.000000000000e+00 0.000000000000e+00 1.411843859181e+06 4.553204604223e+06  0.000000000000e+00
1.240000000000e+00 1.000000000000e+05 1.000000000000e+00 0.000000000000e+00 0.000000000000e+00 2.500000000000e+01 0.000000000000e+00 0.000000000000e+00 -1.262331305483e+06 1.487475914788e+03 -1.327249178965e+07 -1.357396928539e+06 0.000000000000e+00 0.000000000000e+00 0.000000000000e+00 0.000000000000e+00 5.297406674556e+06 1.196291125004e+07  0.000000000000e+00
1.487693532361e+00 1.000000000000e+05 1.000000000000e+00 0.000000000000e+00 0.000000000000e+00 2.500000000000e+01 0.000000000000e+00 0.000000000000e+00 -6.266898055332e+06 1.626371943122e+02 -1.670623109008e+07 -3.888888743625e+06 0.000000000000e+00 0.000000000000e+00 0.000000000000e+00 0.000000000000e+00 8.954005963013e+06 1.180929437947e+07  0.000000000000e+00
1.823812918126e+00 1.000000000000e+05 1.000000000000e+00 0.000000000000e+00 0.000000000000e+00 2.500000000000e+01 0.000000000000e+00 0.000000000000e+00 -1.222332787539e+07 -2.874861964183e+03 -1.817378474036e+07 -6.116083784726e+06 0.000000000000e+00 0.000000000000e+00 0.000000000000e+00 0.000000000000e+00 1.217106546683e+07 1.044257078524e+07  0.000000000000e+00
2.280000000000e+00 1.000000000000e+05 1.000000000000e+00 0.000000000000e+00 0.000000000000e+00 2.500000000000e+01 0.000000000000e+00 0.000000000000e+00 -1.862400571852e+07 -6.140100975330e+03 -1.726483383688e+07 -7.763601866620e+06 0.000000000000e+00 0.000000000000e+00 0.000000000000e+00 0.000000000000e+00 1.455081380734e+07 1.024864271960e+07  0.000000000000e+00
2.850000000000e+00 1.000000000000e+05 1.000000000000e+00 0.000000000000e+00 0.000000000000e+00 2.500000000000e+01 0.000000000000e+00 0.000000000000e+00 -2.290522887646e+07 -8.679469202581e+03 -1.624244662485e+07 -8.741252650395e+06 0.000000000000e+00 0.000000000000e+00 0.000000000000e+00 0.000000000000e+00 1.596297605057e+07 1.227353357649e+07  0.000000000000e+00
3.420000000000e+00 1.000000000000e+05 1.000000000000e+00 0.000000000000e+00 0.000000000000e+00 2.500000000000e+01 0.000000000000e+00 0.000000000000e+00 -2.538927640774e+07 -1.052437051289e+04 -1.550903669435e+07 -9.266443930625e+06 0.000000000000e+00 0.000000000000e+00 0.000000000000e+00 0.000000000000e+00 1.672158567757e+07 1.408075802056e+07  0.000000000000e+00
3.972609728322e+00 1.000000000000e+05 1.000000000000e+00 0.000000000000e+00 0.000000000000e+00 2.500000000000e+01 0.000000000000e+00 0.000000000000e+00 -2.694644531562e+07 -1.204288093443e+04 -1.504926595748e+07 -9.595663381930e+06 0.000000000000e+00 0.000000000000e+00 0.000000000000e+00 0.000000000000e+00 1.719712488501e+07 1.536774481875e+07  0.000000000000e+00
4.633649783484e+00 1.000000000000e+05 1.000000000000e+00 0.000000000000e+00 0.000000000000e+00 2.500000000000e+01 0.000000000000e+00 0.000000000000e+00 -2.832397357321e+07 -1.368094842372e+04 -1.460189164019e+07 -9.874709564020e+06 0.000000000000e+00 0.000000000000e+00 0.000000000000e+00 0.000000000000e+00 1.760019159247e+07 1.659846752638e+07  0.000000000000e+00
5.424552109452e+00 1.000000000000e+05 1.000000000000e+00 0.000000000000e+00 0.000000000000e+00 2.500000000000e+01 0.000000000000e+00 0.000000000000e+00 -2.920962299827e+07 -1.515730601599e+04 -1.426998862307e+07 -1.004083348640e+07 0.000000000000e+00 0.000000000000e+00 0.000000000000e+00 0.000000000000e+00 1.784014836925e+07 1.744308313127e+07  0.000000000000e+00
6.370375975935e+00 1.000000000000e+05 1.000000000000e+00 0.000000000000e+00 0.000000000000e+00 2.500000000000e+01 0.000000000000e+00 0.000000000000e+00 -2.991523946550e+07 -1.651999425732e+04 -1.402854325573e+07 -1.018008481637e+07 0.000000000000e+00 0.000000000000e+00 0.000000000000e+00 0.000000000000e+00 1.804128917920e+07 1.812009540962e+07  0.000000000000e+00
7.501825115922e+00 1.000000000000e+05 1.000000000000e+00 0.000000000000e+00 0.000000000000e+00 2.500000000000e+01 0.000000000000e+00 0.000000000000e+00 -3.049326599438e+07 -1.759502775661e+04 -1.382997626749e+07 -1.029392267856e+07 0.000000000000e+00 0.000000000000e+00 0.000000000000e+00 0.000000000000e+00 1.820572164681e+07 1.868400689636e+07  0.000000000000e+00
8.855503976798e+00 1.000000000000e+05 1.000000000000e+00 0.000000000000e+00 0.000000000000e+00 2.500000000000e+01 0.000000000000e+00 0.000000000000e+00 -3.085225541536e+07 -1.786850061417e+04 -1.369136799394e+07 -1.036003702279e+07 0.000000000000e+00 0.000000000000e+00 0.000000000000e+00 0.000000000000e+00 1.830122014403e+07 1.904634812082e+07  0.000000000000e+00
1.047459878112e+01 1.000000000000e+05 1.000000000000e+00 0.000000000000e+00 0.000000000000e+00 2.500000000000e+01 0.000000000000e+00 0.000000000000e+00 -3.113220835338e+07 -1.688267742772e+04 -1.359250579186e+07 -1.041436424357e+07 0.000000000000e+00 0.000000000000e+00 0.000000000000e+00 0.000000000000e+00 1.837969279627e+07 1.932579266621e+07  0.000000000000e+00
1.241154661369e+01 1.000000000000e+05 1.000000000000e+00 0.000000000000e+00 0.000000000000e+00 2.500000000000e+01 0.000000000000e+00 0.000000000000e+00 -3.130685851467e+07 -1.409868786187e+04 -1.352808692198e+07 -1.044743363099e+07 0.000000000000e+00 0.000000000000e+00 0.000000000000e+00 0.000000000000e+00 1.842745968921e+07 1.950246065449e+07  0.000000000000e+00
1.472871140527e+01 1.000000000000e+05 1.000000000000e+00 0.000000000000e+00 0.000000000000e+00 2.500000000000e+01 0.000000000000e+00 0.000000000000e+00 -3.142400077938e+07 -8.843686767664e+03 -1.348940852721e+07 -1.047097279198e+07 0.000000000000e+00 0.000000000000e+00 0.000000000000e+00 0.000000000000e+00 1.846146069952e+07 1.961874619650e+07  0.000000000000e+00
1.750000000000e+01 1.000000000000e+05 1.000000000000e+00 0.000000000000e+00 0.000000000000e+00 2.500000000000e+01 0.000000000000e+00 0.000000000000e+00 -3.145630060804e+07 -9.319594333115e+02 -1.347899521696e+07 -1.047753874750e+07 0.000000000000e+00 0.000000000000e+00 0.000000000000e+00 0.000000000000e+00 1.847094485750e+07 1.965070869555e+07  0.000000000000e+00
 TITLE = "Profiles along polylines"
 VARIABLES = "DIST" "PRESSURE1" "SATURATION1" "VELOCITY_X1" "VELOCITY_Y1" "TEMPERATURE1" "DISPLACEMENT_X1" "DISPLACEMENT_Y1" "STRESS_XX" "STRESS_XY" "STRESS_YY" "STRESS_ZZ" "STRAIN_XX" "STRAIN_XY" "STRAIN_YY" "STRAIN_PLS"  p_(1st_Invariant)  q_(2nd_Invariant)   Effective_Strain
 ZONE T="TIME=1.000000000000e-03"
0.000000000000e+00 -7.000000000000e+07 0.000000000000e+00 0.000000000000e+00 0.000000000000e+00 2.500000000000e+01 0.000000000000e+00 6.346723481716e-05 3.769174140799e+07 -2.615459427217e-01 3.755454715447e+07 2.257388656874e+07 9.826605645516e-05 -3.400097255382e-12 9.737429380724e-05 0.000000000000e+00 -3.260672504373e+07 1.504972672159e+07  9.782322369031e-05
1.856488293236e-01 -7.000000000000e+07 0.000000000000e+00 0.000000000000e+00 0.000000000000e+00 2.500000000000e+01 1.823566643551e-05 6.346714410414e-05 3.766396210679e+07 -3.672935801862e+01 3.755631175081e+07 2.256608215728e+07 9.813621967180e-05 -4.774816542421e-10 9.743649235797e-05 0.000000000000e+00 -3.259545200496e+07 1.504434363546e+07  9.778823363314e-05
3.329966101904e-01 -7.000000000000e+07 0.000000000000e+00 0.000000000000e+00 0.000000000000e+00 2.500000000000e+01 3.294445756960e-05 6.346695030405e-05 3.631121091413e+07 -6.401328022471e+01 3.620845076051e+07 2.175589850239e+07 9.460953067630e-05 -8.321726429214e-10 9.394158967776e-05 0.000000000000e+00 -3.142518672568e+07 1.450420535312e+07  9.427733480351e-05
4.500000000000e-01 -7.000000000000e+07 6.684759947500e-01 -2.131502240121e-14 -1.849270749377e-07 3.232023738439e+01 4.117428646097e-05 6.346671831316e-05 1.496974299067e+07 -8.525727049640e+01 2.081890811746e+07 1.051821015985e+07 -5.358827457922e-03 -2.469276889483e-07 1.594242450885e-04 0.000000000000e+00 -1.543562042266e+07 8.947995744355e+06  5.440291813742e-03
5.425413849766e-01 -6.999999999989e+07 6.684759947436e-01 -3.761931487684e-12 -1.848676933305e-07 2.747065579886e+01 -1.329922268151e-03 6.339687749120e-05 -7.567488402767e+06 -7.228884557007e+01 -4.776655511272e+06 -4.329543369466e+06 -1.378935582006e-02 -6.157094102182e-07 -1.904105335768e-03 0.000000000000e+00 5.557895761168e+06 3.039156590704e+06  1.294278046655e-02
6.536499690359e-01 -6.999999993365e+07 6.684759878566e-01 -3.299515754527e-09 -1.848325880385e-07 2.569851850869e+01 -2.777213437831e-03 6.330724920523e-05 -7.246018958656e+06 -6.633964397373e+01 -5.049653602103e+06 -4.306078879127e+06 -1.252024955005e-02 -5.650379770633e-07 -3.166643142010e-03 0.000000000000e+00 5.533917146629e+06 2.647656685236e+06  1.127550957466e-02
7.871337589362e-01 -6.999993003809e+07 6.684774325879e-01 -3.816477680429e-06 -1.848056506539e-07 2.514724083908e+01 -4.448400881403e-03 6.318499038273e-05 -7.288945183655e+06 -6.732491528651e+01 -4.881181125612e+06 -4.260087254822e+06 -1.289892177894e-02 -5.734298778346e-07 -2.645036989170e-03 0.000000000000e+00 5.476737854697e+06 2.771016576618e+06  1.180085926931e-02
9.474533848814e-01 -6.991580129891e+07 6.507528602308e-01 -2.437363284039e-03 -1.580322805175e-07 2.502705681803e+01 -6.503507369752e-03 6.301697618904e-05 -1.066682940497e+07 -7.375001337322e+01 -6.810756591588e+06 -6.117618350837e+06 -1.937361174474e-02 -6.281546880368e-07 -2.951850552096e-03 0.000000000000e+00 7.865068115800e+06 4.245295008043e+06  1.807933207773e-02
1.140000000000e+00 1.349371324694e+05 9.738732786163e-01 -2.019618020084e-02 -7.176476130584e-04 2.500190493719e+01 -1.633040137345e-03 6.277134496286e-05 3.438104953442e+07 4.946157112598e+02 -1.437898603823e+07 8.698344694946e+06 3.078053697835e-02 -6.033322107199e-07 -1.962023522055e-04 0.000000000000e+00 -9.566802730377e+06 4.224751822388e+07  3.087910566853e-02
1.240000000000e+00 1.413412552946e+05 1.000000000000e+00 -1.912507446065e-02 -1.252585888065e-03 2.500109376761e+01 -1.503823674635e-03 6.275912513475e-05 3.067864835910e+07 2.494188602369e+03 -4.471539912869e+07 -1.208343338455e+06 1.180842968481e-03 7.478437107746e-08 -1.173415691653e-03 0.000000000000e+00 5.081698036015e+06 6.555115016905e+07  2.038851192952e-03
1.487693532361e+00 1.556961197234e+05 1.000000000000e+00 -1.668949622423e-02 -1.060120106664e-03 2.500029145238e+01 -1.255118752501e-03 6.274833554257e-05 1.695247405200e+07 1.769606401390e+03 -4.014895476981e+07 -3.956011404204e+06 8.649269485225e-04 1.193748553830e-07 -8.682366092826e-04 0.000000000000e+00 9.050830707337e+06 5.003832084423e+07  1.500964596449e-03
1.823812918126e+00 1.717928622387e+05 1.000000000000e+00 -1.407500256654e-02 -8.343706375937e-04 2.500002885146e+01 -1.021589034359e-03 6.275024326799e-05 3.655517323974e+06 -1.291098669358e+03 -3.346018715368e+07 -5.938366441628e+06 5.831847489470e-04 1.176509876156e-07 -5.743815909525e-04 0.000000000000e+00 1.191434542378e+07 3.336966249371e+07  1.002491540550e-03
2.280000000000e+00 1.897522717761e+05 1.000000000000e+00 -1.080450907902e-02 -6.178745246235e-04 2.500000156039e+01 -8.136339360333e-04 6.276106152710e-05 -8.556070525990e+06 -4.871810018184e+03 -2.678600184720e+07 -7.599572542890e+06 3.678593608412e-04 9.421589967369e-08 -3.597359009790e-04 0.000000000000e+00 1.431388163869e+07 1.872651190457e+07  6.301290923671e-04
2.850000000000e+00 2.074446307919e+05 1.000000000000e+00 -8.741383585309e-03 -5.169176379831e-04 2.499999997876e+01 -6.473883775400e-04 6.277700788298e-05 -1.627668553592e+07 -7.640013997391e+03 -2.226860565791e+07 -8.560537369142e+06 2.394907564880e-04 7.721667238552e-08 -2.305410459602e-04 0.000000000000e+00 1.570194285432e+07 1.190280504143e+07  4.070840990525e-04
3.420000000000e+00 2.215970185909e+05 1.000000000000e+00 -7.354823483911e-03 -4.556995872020e-04 2.500000000037e+01 -5.359021417338e-04 6.279303980197e-05 -2.062621203766e+07 -9.600948606790e+03 -1.963855380525e+07 -9.076379752868e+06 1.698542928575e-04 6.859705588205e-08 -1.604415907216e-04 0.000000000000e+00 1.644704853193e+07 1.108905244764e+07  2.860833652783e-04
3.972609728322e+00 2.330505661732e+05 1.000000000000e+00 -6.170055220174e-03 -4.143423897756e-04 2.500000000008e+01 -4.572317668831e-04 6.280838404280e-05 -2.330482974317e+07 -1.118329481004e+04 -1.804210859540e+07 -9.401031501591e+06 1.280308228498e-04 6.385496924096e-08 -1.183919106784e-04 0.000000000000e+00 1.691598994672e+07 1.215896383660e+07  2.134627885346e-04
4.633649783484e+00 2.447525257874e+05 1.000000000000e+00 -5.063055921838e-03 -3.843603950768e-04 2.499999999999e+01 -3.859762033701e-04 6.282655550809e-05 -2.561201698545e+07 -1.287192904963e+04 -1.668165512125e+07 -9.685051632010e+06 9.368537864190e-05 6.009858207565e-08 -8.429279534253e-05 0.000000000000e+00 1.732624124624e+07 1.382702142365e+07  1.542051840954e-04
5.424552109452e+00 2.565441707821e+05 1.000000000000e+00 -4.298457931970e-03 -3.623238966003e-04 2.500000000001e+01 -3.236254467723e-04 6.284841702105e-05 -2.710471870513e+07 -1.436805517075e+04 -1.570424655069e+07 -9.839639576747e+06 7.070924281517e-05 5.863006278903e-08 -6.074535395571e-05 0.000000000000e+00 1.754953494419e+07 1.520606090114e+07  1.139520221054e-04
6.370375975935e+00 2.680807782276e+05 1.000000000000e+00 -3.547741570992e-03 -3.462440019069e-04 2.499999999998e+01 -2.674328675082e-04 6.287476625335e-05 -2.828090676865e+07 -1.573726612146e+04 -1.498218276635e+07 -9.975876860494e+06 5.311891895052e-05 5.814551866356e-08 -4.300576304112e-05 0.000000000000e+00 1.774632213183e+07 1.638588973508e+07  8.339991000781e-05
7.501825115922e+00 2.794199820965e+05 1.000000000000e+00 -2.776495605589e-03 -3.349118681415e-04 2.499999999999e+01 -2.163638221016e-04 6.290651940393e-05 -2.922844067436e+07 -1.682080833914e+04 -1.441149222220e+07 -1.008892986896e+07 3.936520753001e-05 5.751344244046e-08 -2.921318267413e-05 0.000000000000e+00 1.790962092184e+07 1.738604437817e+07  5.960723553227e-05
8.855503976798e+00 2.902924433088e+05 1.000000000000e+00 -2.217119764407e-03 -3.264088149119e-04 2.499999999998e+01 -1.705608858143e-04 6.294437932304e-05 -2.981939813077e+07 -1.711054977852e+04 -1.401859031694e+07 -1.014834653431e+07 3.050048099809e-05 5.630491921987e-08 -2.001676156939e-05 0.000000000000e+00 1.799544499401e+07 1.804988008330e+07  4.406223384559e-05
1.047459878112e+01 3.001110515483e+05 1.000000000000e+00 -1.628522891811e-03 -3.210050958718e-04 2.499999999996e+01 -1.276129582451e-04 6.298774030244e-05 -3.027527888477e+07 -1.617944838902e+04 -1.373333228645e+07 -1.019953335136e+07 2.384937569451e-05 5.223987144664e-08 -1.321013151004e-05 0.000000000000e+00 1.806938150753e+07 1.856287776107e+07  3.253247411280e-05
1.241154661369e+01 3.083650975032e+05 1.000000000000e+00 -1.171255185209e-03 -3.171848420128e-04 2.500000000001e+01 -8.656443589087e-05 6.303344102338e-05 -3.055887289075e+07 -1.351243580834e+04 -1.354846211573e+07 -1.022915050195e+07 1.967466409546e-05 4.355015254823e-08 -8.864451989505e-06 0.000000000000e+00 1.811216183614e+07 1.889008486277e+07  2.529983639225e-05
1.472871140527e+01 3.143751555563e+05 1.000000000000e+00 -6.076283789138e-04 -3.149048949760e-04 2.499999999966e+01 -4.496440661525e-05 6.307279859085e-05 -3.074695196376e+07 -8.475042046893e+03 -1.343089425698e+07 -1.025030386613e+07 1.695125304902e-05 2.738503640015e-08 -6.022887208506e-06 0.000000000000e+00 1.814271669562e+07 1.910595488238e+07  2.063293205621e-05
1.750000000000e+01 3.166832744713e+05 1.000000000000e+00 -2.790489179235e-04 -3.137548235771e-04 2.500000000003e+01 0.000000000000e+00 6.308985144527e-05 -3.080085390899e+07 -9.113952817258e+02 -1.339322451801e+07 -1.025517352815e+07 1.608588353167e-05 1.527622689229e-09 -5.073510757689e-06 0.000000000000e+00 1.814975065172e+07 1.917026228725e+07  1.913395073028e-05
 TITLE = "Profiles along polylines"
 VARIABLES = "DIST" "PRESSURE1" "SATURATION1" "VELOCITY_X1" "VELOCITY_Y1" "TEMPERATURE1" "DISPLACEMENT_X1" "DISPLACEMENT_Y1" "STRESS_XX" "STRESS_XY" "STRESS_YY" "STRESS_ZZ" "STRAIN_XX" "STRAIN_XY" "STRAIN_YY" "STRAIN_PLS"  p_(1st_Invariant)  q_(2nd_Invariant)   Effective_Strain
 ZONE T="TIME=9.000000000000e-01"
0.000000000000e+00 -7.000000000000e+07 0.000000000000e+00 0.000000000000e+00 0.000000000000e+00 2.500000000000e+01 0.000000000000e+00 8.939067819192e-04 2.981847487168e+07 -4.905350247222e-01 3.113440661891e+07 1.828586444718e+07 7.496196775927e-05 -6.376955321390e-12 8.351552411625e-05 0.000000000000e+00 -2.641291531259e+07 1.224372932373e+07  7.958424060424e-05
1.856488293236e-01 -7.000000000000e+07 0.000000000000e+00 0.000000000000e+00 0.000000000000e+00 2.500000000000e+01 1.392060235000e-05 8.939065078625e-04 2.980426604919e+07 -8.940859277314e+01 3.110507582831e+07 1.827280256325e+07 7.495451265861e-05 -1.162311706051e-09 8.340977622289e-05 0.000000000000e+00 -2.639404814692e+07 1.223384635767e+07  7.952000134397e-05
3.329966101904e-01 -7.000000000000e+07 0.000000000000e+00 0.000000000000e+00 0.000000000000e+00 2.500000000000e+01 2.514774080161e-05 8.939058974500e-04 2.919975735627e+07 -1.697534044540e+02 3.026885823292e+07 1.784058467675e+07 7.383462241682e-05 -2.206794257902e-09 8.078377811505e-05 0.000000000000e+00 -2.576973342198e+07 1.192970587247e+07  7.754308824168e-05
4.500000000000e-01 -1.816661581190e+08 4.456108523502e-01 -3.525504983595e-03 -1.463163236064e-07 8.265815789349e+01 2.952832112129e-05 8.939051592369e-04 -1.099138780681e+07 -2.552078465697e+02 6.410332449283e+06 -2.749700543349e+06 -3.699225986575e-02 -6.698392098589e-07 2.946630397711e-04 0.000000000000e+00 2.443585300293e+06 1.507732538677e+07  3.714046808225e-02
5.425413849766e-01 -1.219589371697e+08 5.285549368422e-01 -5.028096407467e-03 -2.127744996578e-07 7.339477983724e+01 -6.782060880026e-03 8.937441107488e-04 -3.004759296613e+07 -7.324745437482e+01 -1.924875325359e+07 -1.719898398656e+07 -5.471805085939e-02 -6.238742170720e-07 -8.729301294936e-03 0.000000000000e+00 2.216511006876e+07 1.195623782650e+07  5.091773207727e-02
6.536499690359e-01 -7.817197537763e+07 6.284138298204e-01 -4.798411206895e-03 -2.538536788582e-07 6.559440073889e+01 -1.072495268695e-02 8.935717960207e-04 -1.414656618622e+07 2.757327269694e+01 -1.213429777192e+07 -9.260943455773e+06 -2.080627976688e-02 2.348512185542e-07 -1.223668241893e-02 0.000000000000e+00 1.184726913797e+07 4.252922446160e+06  1.811181483723e-02
7.871337589362e-01 -5.086536454731e+07 7.337618378071e-01 -4.011075295140e-03 -2.070974575721e-07 5.919241278881e+01 -1.175356750787e-02 8.933187105606e-04 -2.858754391189e+06 -2.474290458253e+00 -6.393095464150e+06 -3.436418007515e+06 2.460081646814e-03 -2.107439822480e-08 -1.259152860081e-02 0.000000000000e+00 4.229422620951e+06 3.283839494879e+06  1.398480541987e-02
9.474533848814e-01 -2.995160435701e+07 8.160588473913e-01 -4.834947611976e-03 -1.409280079144e-07 5.355537192346e+01 -9.485499931322e-03 8.928514720977e-04 7.883555556661e+06 -2.447198962980e+02 5.232954040650e+05 2.611053567003e+06 2.245387282662e-02 -2.084365047332e-06 -8.891083659201e-03 0.000000000000e+00 -3.672634842577e+06 6.570062452180e+06  2.797976140637e-02
1.140000000000e+00 3.218074039441e+05 9.953532695392e-01 -8.348967616171e-03 -2.782732174040e-04 4.839443463487e+01 -1.393292790946e-03 8.919477362250e-04 3.019067333131e+07 5.597137553515e+01 -1.703785238223e+07 2.394203007858e+06 2.986449615784e-02 -2.628877749047e-06 -1.298156077110e-03 0.000000000000e+00 -5.182341318979e+06 4.111436598210e+07  3.053427808010e-02
1.240000000000e+00 3.238471545663e+05 1.000000000000e+00 -6.224240782586e-03 -5.131763833163e-04 4.743225994710e+01 -1.247403362679e-03 8.919223292116e-04 2.431576536070e+07 2.445292465401e+03 -4.740973556764e+07 -1.174959598706e+07 1.336039555489e-03 7.115208661691e-08 -8.819588038661e-04 0.000000000000e+00 1.161452206466e+07 6.211643648564e+07  1.934214282083e-03
1.487693532361e+00 3.285358135347e+05 1.000000000000e+00 -5.466325218695e-03 -4.678510542760e-04 4.537272010738e+01 -9.630818452857e-04 8.918907635709e-04 1.081745274322e+07 1.773648307069e+03 -4.253748188810e+07 -1.371052755426e+07 9.993653283411e-04 1.196751112334e-07 -5.946427309598e-04 0.000000000000e+00 1.514351889971e+07 4.625669779624e+07  1.395204790707e-03
1.823812918126e+00 3.338256376531e+05 1.000000000000e+00 -4.629948452439e-03 -4.155858671372e-04 4.310344223054e+01 -6.887576964098e-04 8.918735065727e-04 -2.050591430949e+06 -1.672311631202e+03 -3.553259143125e+07 -1.465059374531e+07 6.948405807580e-04 8.933231045004e-08 -3.277595928398e-04 0.000000000000e+00 1.741125886917e+07 2.929046113052e+07  9.044172008234e-04
2.280000000000e+00 3.397329295621e+05 1.000000000000e+00 -3.554148948107e-03 -3.661307233464e-04 4.059286263957e+01 -4.365183295374e-04 8.918635200325e-04 -1.379098922585e+07 -5.539360334162e+03 -2.835679033734e+07 -1.512958273984e+07 4.531056164475e-04 4.462644762968e-08 -1.383933804405e-04 0.000000000000e+00 1.909245410101e+07 1.394477679186e+07  5.358770860349e-04
2.850000000000e+00 3.455528284999e+05 1.000000000000e+00 -2.875373796644e-03 -3.433457413722e-04 3.814116165412e+01 -2.295622768949e-04 8.918565232018e-04 -2.103536554823e+07 -8.431819488243e+03 -2.329675621392e+07 -1.494067822777e+07 2.997164450655e-04 1.839683592222e-08 -3.175283471977e-05 0.000000000000e+00 1.975759999664e+07 7.486106035885e+06  3.167886325514e-04
3.420000000000e+00 3.502078464756e+05 1.000000000000e+00 -2.419072443872e-03 -3.295999116594e-04 3.620616368492e+01 -9.013826833514e-05 8.918514547282e-04 -2.498993165028e+07 -1.042308834206e+04 -2.021714572523e+07 -1.453668066961e+07 2.105844555822e-04 7.523818404990e-09 2.087902915823e-05 0.000000000000e+00 1.991458601504e+07 9.064167822914e+06  2.009600656173e-04
3.972609728322e+00 3.539747924553e+05 1.000000000000e+00 -2.029193536069e-03 -3.203506138682e-04 3.466405161175e+01 5.980713585543e-06 8.918476135386e-04 -2.732761125049e+07 -1.200834860252e+04 -1.825733104632e+07 -1.410826317532e+07 1.534532576020e-04 2.565258942470e-09 4.845414616881e-05 0.000000000000e+00 1.989773515738e+07 1.170975610155e+07  1.358685393880e-04
4.633649783484e+00 3.578231496999e+05 1.000000000000e+00 -1.664988708814e-03 -3.136623263814e-04 3.312476404047e+01 8.805482513953e-05 8.918440624986e-04 -2.925545142557e+07 -1.368225387829e+04 -1.652699077146e+07 -1.360465198498e+07 1.039429696907e-04 -9.697662521898e-11 6.703703647446e-05 0.000000000000e+00 1.979569806067e+07 1.441357729643e+07  9.126925307578e-05
5.424552109452e+00 3.617007621086e+05 1.000000000000e+00 -1.413476323080e-03 -3.087565098698e-04 3.162177498196e+01 1.523974310831e-04 8.918412167110e-04 -3.039720868801e+07 -1.515784804815e+04 -1.521142257987e+07 -1.303899253655e+07 6.724986767255e-05 -4.026524651727e-11 7.639264632448e-05 0.000000000000e+00 1.954920793481e+07 1.638042427011e+07  7.225638904595e-05
6.370375975935e+00 3.654942718160e+05 1.000000000000e+00 -1.166553002993e-03 -3.051811017538e-04 3.021206124636e+01 1.985462318162e-04 8.918396776220e-04 -3.121423072659e+07 -1.649040755612e+04 -1.417742708656e+07 -1.247955696277e+07 3.716071859727e-05 2.197869232263e-09 7.987899457860e-05 0.000000000000e+00 1.929040492531e+07 1.794610088382e+07  6.923302648792e-05
7.501825115922e+00 3.692227086314e+05 1.000000000000e+00 -9.129193050757e-04 -3.026638080350e-04 2.891146254478e+01 2.242308809487e-04 8.918398751851e-04 -3.178569565985e+07 -1.754381014780e+04 -1.332930652314e+07 -1.192088205586e+07 1.242538929661e-05 3.804736654481e-09 7.902622451836e-05 0.000000000000e+00 1.901196141295e+07 1.919940917943e+07  7.360436739722e-05
8.855503976798e+00 3.727975727018e+05 1.000000000000e+00 -7.289782335277e-04 -3.007764906503e-04 2.775942544918e+01 2.270334007093e-04 8.918425199450e-04 -3.205514798361e+07 -1.777565963458e+04 -1.271906363653e+07 -1.142422237228e+07 -5.151982410981e-06 6.896758484048e-09 7.564104625626e-05 0.000000000000e+00 1.873281133081e+07 2.001496639020e+07  7.834419113157e-05
1.047459878112e+01 3.760258460113e+05 1.000000000000e+00 -5.354392718034e-04 -2.995775713802e-04 2.681702139600e+01 2.061300045462e-04 8.918482125293e-04 -3.220650115436e+07 -1.677233167101e+04 -1.226649444538e+07 -1.099231023961e+07 -1.843573846935e-05 8.197113356274e-09 7.071841557948e-05 0.000000000000e+00 1.848843527978e+07 2.060668577160e+07  8.151513461408e-05
1.241154661369e+01 3.787396599702e+05 1.000000000000e+00 -3.850901205472e-04 -2.987302404714e-04 2.610845597502e+01 1.607885129156e-04 8.918567090788e-04 -3.226105323811e+07 -1.395729455835e+04 -1.197199015984e+07 -1.067355631358e+07 -2.704267580300e-05 1.050350254733e-08 6.619672223285e-05 0.000000000000e+00 1.830219990384e+07 2.096846684131e+07  8.308699765002e-05
1.472871140527e+01 3.807156578943e+05 1.000000000000e+00 -1.997763515272e-04 -2.982246724743e-04 2.564257418429e+01 9.150835521570e-05 8.918646249052e-04 -3.226454030677e+07 -8.772651895770e+03 -1.180326922236e+07 -1.045368173969e+07 -3.186227867355e-05 5.276876197814e-09 6.198579223791e-05 0.000000000000e+00 1.817383042294e+07 2.116836098937e+07  8.265864692368e-05
1.750000000000e+01 3.814745223456e+05 1.000000000000e+00 -9.174547261658e-05 -2.979696791962e-04 2.546466909177e+01 0.000000000000e+00 8.918701626370e-04 -3.225739124353e+07 -8.368894085226e+02 -1.173974316804e+07 -1.036461720286e+07 -3.394902383356e-05 7.062344698604e-09 6.040656158749e-05 0.000000000000e+00 1.812058387148e+07 2.123862534827e+07  8.277821483181e-05
 TITLE = "Profiles along polylines"
 VARIABLES = "DIST" "PRESSURE1" "SATURATION1" "VELOCITY_X1" "VELOCITY_Y1" "TEMPERATURE1" "DISPLACEMENT_X1" "DISPLACEMENT_Y1" "STRESS_XX" "STRESS_XY" "STRESS_YY" "STRESS_ZZ" "STRAIN_XX" "STRAIN_XY" "STRAIN_YY" "STRAIN_PLS"  p_(1st_Invariant)  q_(2nd_Invariant)   Effective_Strain
 ZONE T="TIME=1.000000000000e+00"
0.000000000000e+00 -7.000000000000e+07 0.000000000000e+00 0.000000000000e+00 0.000000000000e+00 2.500000000000e+01 0.000000000000e+00 9.845552200931e-04 2.934480314234e+07 -3.791435064186e-01 3.070998118149e+07 1.801643529715e+07 7.363439099377e-05 -4.928865583443e-12 8.250804824820e-05 0.000000000000e+00 -2.602373987366e+07 1.206900443766e+07  7.844852884478e-05
1.856488293236e-01 -7.000000000000e+07 0.000000000000e+00 0.000000000000e+00 0.000000000000e+00 2.500000000000e+01 1.367470494982e-05 9.845549480636e-04 2.933124388844e+07 -8.790083403905e+01 3.067902458619e+07 1.800308054239e+07 7.363306174931e-05 -1.142710842508e-09 8.239363628473e-05 0.000000000000e+00 -2.600444967234e+07 1.205867644172e+07  7.838139688990e-05