 TITLE = "Time curves in points"
 VARIABLES = "TIME"  "PRESSURE1"  "SATURATION1"  "TEMPERATURE1"  "DISPLACEMENT_X1"  "DISPLACEMENT_Y1"  "STRESS_XX"  "STRESS_XY"  "STRESS_YY"  "STRESS_ZZ"  "STRAIN_XX"  "STRAIN_XY"  "STRAIN_YY"  "STRAIN_PLS"  p_(1st_Invariant)  q_(2nd_Invariant)   Effective_Strain
 ZONE T="POINT=POINT13"
0.000000000000e+00 1.000000000000e+05 1.000000000000e+00 2.500000000000e+01 0.000000000000e+00 0.000000000000e+00 -2.538927640774e+07 -1.052437051289e+04 -1.550903669435e+07 -9.266443930625e+06 0.000000000000e+00 0.000000000000e+00 0.000000000000e+00 0.000000000000e+00 1.672158567757e+07 1.408075802056e+07  0.000000000000e+00
1.000000000000e-03 2.215970185909e+05 1.000000000000e+00 2.500000000037e+01 -5.359021417338e-04 6.279303980197e-05 -2.062621203766e+07 -9.600948606790e+03 -1.963855380525e+07 -9.076379752868e+06 1.698542928575e-04 6.859705588205e-08 -1.604415907216e-04 0.000000000000e+00 1.644704853193e+07 1.108905244764e+07  2.860833652783e-04
2.000000000000e-03 2.374000182389e+05 1.000000000000e+00 2.500000000165e+01 -5.353392125593e-04 6.219758720098e-05 -2.062333925602e+07 -9.797263588272e+03 -1.963125288736e+07 -9.073327644349e+06 1.698476321448e-04 5.401365725766e-08 -1.602837778023e-04 0.000000000000e+00 1.644263992924e+07 1.108732079783e+07  2.859421907574e-04
3.000000000000e-03 2.481294087742e+05 1.000000000000e+00 2.500000000882e+01 -5.348375371883e-04 6.171482106203e-05 -2.062265382453e+07 -9.879656200334e+03 -1.962580096116e+07 -9.071486457785e+06 1.698047040993e-04 4.789306321875e-08 -1.601496646156e-04 0.000000000000e+00 1.643998041449e+07 1.108641789415e+07  2.857896532480e-04
4.000000000000e-03 2.554312099714e+05 1.000000000000e+00 2.500000010812e+01 -5.343502032514e-04 6.120093441476e-05 -2.062383273986e+07 -9.918330096500e+03 -1.962174108247e+07 -9.070622319632e+06 1.697288192555e-04 4.502014521786e-08 -1.600309656813e-04 0.000000000000e+00 1.643873204732e+07 1.108619763695e+07  2.856215240360e-04
1.000000000000e-02 2.653685580263e+05 1.000000000000e+00 2.500418286354e+01 -5.295970318607e-04 5.840303990328e-05 -2.066506124763e+07 -9.974824048302e+03 -1.959572723598e+07 -9.076891310889e+06 1.684303229281e-04 4.082345165546e-08 -1.588318888508e-04 0.000000000000e+00 1.644589326483e+07 1.109224197160e+07  2.834580285115e-04
2.000000000000e-02 2.608597032259e+05 1.000000000000e+00 2.505008727280e+01 -5.173641122287e-04 5.658490777291e-05 -2.077754207188e+07 -1.002047567191e+04 -1.953636789677e+07 -9.110542847077e+06 1.655023779431e-04 3.743218818751e-08 -1.553771991931e-04 0.000000000000e+00 1.647481760524e+07 1.109859934115e+07  2.779359841439e-04
3.000000000000e-02 2.495489175670e+05 1.000000000000e+00 2.514817922466e+01 -5.027193732163e-04 5.693746048451e-05 -2.091110134719e+07 -1.004873249904e+04 -1.948035365915e+07 -9.170853396794e+06 1.627817109923e-04 3.533310960070e-08 -1.510565642349e-04 0.000000000000e+00 1.652076946771e+07 1.109429723789e+07  2.718551466500e-04
4.000000000000e-02 2.355465318421e+05 1.000000000000e+00 2.529705665319e+01 -4.870529645092e-04 5.962173014917e-05 -2.105211946238e+07 -1.007245971690e+04 -1.943631375163e+07 -9.255386469690e+06 1.606836951357e-04 3.357051627380e-08 -1.462809963909e-04 0.000000000000e+00 1.658127322790e+07 1.107758156013e+07  2.659367484887e-04
5.000000000000e-02 2.208507662207e+05 1.000000000000e+00 2.548761819536e+01 -4.712272241296e-04 6.330567229897e-05 -2.119430353204e+07 -1.008902562458e+04 -1.940970806104e+07 -9.360306524170e+06 1.592996031432e-04 3.233990598873e-08 -1.413957544313e-04 0.000000000000e+00 1.665477270575e+07 1.105032461418e+07  2.605636460396e-04
6.000000000000e-02 2.060225546663e+05 1.000000000000e+00 2.570879168117e+01 -4.557565207183e-04 6.930675672044e-05 -2.133128844110e+07 -1.010522396534e+04 -1.939468345391e+07 -9.477807112487e+06 1.585758998014e-04 3.113660067580e-08 -1.364733900289e-04 0.000000000000e+00 1.673459300250e+07 1.101363944272e+07  2.557590579335e-04
7.000000000000e-02 1.919281180489e+05 1.000000000000e+00 2.595046351200e+01 -4.408958249852e-04 7.532243724241e-05 -2.146363751961e+07 -1.011544710161e+04 -1.939466630290e+07 -9.605398419079e+06 1.583991825586e-04 3.037716769519e-08 -1.317336473180e-04 0.000000000000e+00 1.682123408053e+07 1.097107232899e+07  2.516158971327e-04
8.000000000000e-02 1.792080851557e+05 1.000000000000e+00 2.620447931517e+01 -4.267397122829e-04 8.212361047661e-05 -2.158955282892e+07 -1.012528796711e+04 -1.940405335490e+07 -9.737939631102e+06 1.586452875165e-04 2.964613197292e-08 -1.271593499456e-04 0.000000000000e+00 1.691051527164e+07 1.092409064847e+07  2.480142370893e-04
9.000000000000e-02 1.687645123509e+05 1.000000000000e+00 2.646469501889e+01 -4.132907837595e-04 8.831113465613e-05 -2.171071865335e+07 -1.013742776430e+04 -1.942381579743e+07 -9.874058366107e+06 1.592006813381e-04 2.874431846692e-08 -1.228375447966e-04 0.000000000000e+00 1.700286427229e+07 1.087508471300e+07  2.449280356643e-04
1.000000000000e-01 1.616086228273e+05 1.000000000000e+00 2.672667332884e+01 -4.005552979400e-04 9.384997146795e-05 -2.182707164345e+07 -1.014564577158e+04 -1.945182266445e+07 -1.001155042793e+07 1.599858468590e-04 2.813383792604e-08 -1.187709518470e-04 0.000000000000e+00 1.709681491194e+07 1.082514911701e+07  2.422884311845e-04
2.000000000000e-01 1.793786838827e+05 1.000000000000e+00 2.886815333665e+01 -3.167797390396e-04 1.886760006256e-04 -2.258818569016e+07 -1.019403261320e+04 -1.970328495409e+07 -1.107704687073e+07 1.712914787139e-04 2.453938683451e-08 -8.853539758662e-05 0.000000000000e+00 1.778950583833e+07 1.037404395975e+07  2.287895283519e-04
3.000000000000e-01 2.067061926522e+05 1.000000000000e+00 3.056714735510e+01 -2.565179965259e-04 2.983446746962e-04 -2.314389610373e+07 -1.022318417392e+04 -1.986812849694e+07 -1.189435767201e+07 1.810080645433e-04 2.237384232415e-08 -6.430089941607e-05 0.000000000000e+00 1.830212742422e+07 1.002158711457e+07  2.203122964088e-04
4.000000000000e-01 2.345704499934e+05 1.000000000000e+00 3.193680519471e+01 -2.113415449046e-04 4.037704517179e-04 -2.358345521646e+07 -1.024436210045e+04 -1.999331564346e+07 -1.254693491072e+07 1.889201663652e-04 2.080062492457e-08 -4.471212456362e-05 0.000000000000e+00 1.870790192354e+07 9.750464048222e+06  2.147953133836e-04
5.000000000000e-01 2.610561448546e+05 1.000000000000e+00 3.306793717479e+01 -1.760242728356e-04 5.061893465438e-04 -2.394785149695e+07 -1.026786181538e+04 -2.008158220520e+07 -1.308099241641e+07 1.952218690155e-04 1.905493181555e-08 -2.815417521673e-05 0.000000000000e+00 1.903680870619e+07 9.540585791172e+06  2.107143742599e-04
6.000000000000e-01 2.857225255773e+05 1.000000000000e+00 3.402346061118e+01 -1.476890148292e-04 6.060489817075e-04 -2.425946229764e+07 -1.029625712832e+04 -2.014120557826e+07 -1.352836407207e+07 2.002644150571e-04 1.694556571092e-08 -1.375209614904e-05 0.000000000000e+00 1.930967731599e+07 9.376748274246e+06  2.074825593615e-04
7.000000000000e-01 3.086665098176e+05 1.000000000000e+00 3.484650643383e+01 -1.245868250676e-04 7.035358428771e-04 -2.453197610769e+07 -1.033209774307e+04 -2.017970385669e+07 -1.391082356153e+07 2.043481117211e-04 1.428312004431e-08 -9.763940245656e-07 0.000000000000e+00 1.954083450864e+07 9.247990479668e+06  2.048380555378e-04
8.000000000000e-01 3.301547932438e+05 1.000000000000e+00 3.556698583195e+01 -1.057984813210e-04 7.988145751923e-04 -2.477218603715e+07 -1.037499101768e+04 -2.020441680152e+07 -1.424325111059e+07 2.077733375919e-04 1.109676250179e-08 1.045300556091e-05 0.000000000000e+00 1.973995131642e+07 9.144920139483e+06  2.027490312073e-04
9.000000000000e-01 3.502078464756e+05 1.000000000000e+00 3.620616368492e+01 -9.013826833514e-05 8.918514547282e-04 -2.498993165028e+07 -1.042308834206e+04 -2.021714572523e+07 -1.453668066961e+07 2.105844555822e-04 7.523818404990e-09 2.087902915823e-05 0.000000000000e+00 1.991458601504e+07 9.064167822914e+06  2.009600656173e-04
1.000000000000e+00 3.689731007522e+05 1.000000000000e+00 3.677959929652e+01 -7.705070146340e-05 9.827040012465e-04 -2.518912819601e+07 -1.047442747671e+04 -2.022071569430e+07 -1.479864073683e+07 2.129156720947e-04 3.710054116332e-09 3.047637566084e-05 0.000000000000e+00 2.006949487571e+07 9.001302893266e+06  1.994316798591e-04
2.000000000000e+00 4.964934101608e+05 1.000000000000e+00 4.012314426403e+01 -3.136455843710e-05 1.735904958662e-03 -2.652972984059e+07 -1.079857746640e+04 -1.999377376395e+07 -1.630345511239e+07 2.190150021025e-04 -2.036965940341e-08 9.479875273740e-05 0.000000000000e+00 2.094231957231e+07 8.969798438595e+06  1.902420218595e-04
3.000000000000e+00 5.964724786131e+05 1.000000000000e+00 4.242095265694e+01 -1.678729300432e-05 2.378589268117e-03 -2.756173511570e+07 -1.092316247198e+04 -1.969375551897e+07 -1.732654044831e+07 2.186836900754e-04 -2.962454553178e-08 1.439426000279e-04 0.000000000000e+00 2.152734369433e+07 9.280860302189e+06  1.925204719179e-04
4.000000000000e+00 6.807252600206e+05 1.000000000000e+00 4.418240245759e+01 -1.421035665795e-05 2.938931359052e-03 -2.841006954416e+07 -1.095196942307e+04 -1.938986751829e+07 -1.810525073315e+07 2.160976504555e-04 -3.176449046989e-08 1.841533934904e-04 0.000000000000e+00 2.196839593187e+07 9.726363536121e+06  2.020285975714e-04
5.000000000000e+00 7.551283699952e+05 1.000000000000e+00 4.563415818607e+01 -1.610059223977e-05 3.436265102366e-03 -2.913480819332e+07 -1.093092466655e+04 -1.910565677422e+07 -1.874434431706e+07 2.129165480317e-04 -3.020116569981e-08 2.184475542437e-04 0.000000000000e+00 2.232826976153e+07 1.021461896875e+07  2.157352403795e-04
6.000000000000e+00 8.227572630037e+05 1.000000000000e+00 4.689822793377e+01 -1.864529008658e-05 3.885020189662e-03 -2.977799157829e+07 -1.089809761443e+04 -1.884444922973e+07 -1.930030984501e+07 2.096770276281e-04 -2.776258468573e-08 2.487996969344e-04 0.000000000000e+00 2.264091688435e+07 1.071290540198e+07  2.317286484100e-04
7.000000000000e+00 8.856493915302e+05 1.000000000000e+00 4.799444224173e+01 -2.265388359229e-05 4.292249941397e-03 -3.034094443735e+07 -1.086488404428e+04 -1.860528697350e+07 -1.978001401684e+07 2.065849335308e-04 -2.529529090327e-08 2.755004499766e-04 0.000000000000e+00 2.290874847590e+07 1.119463262810e+07  2.483215505603e-04
8.000000000000e+00 9.444562335573e+05 1.000000000000e+00 4.900532242408e+01 -2.570417963069e-05 4.667679978772e-03 -3.085772898078e+07 -1.083955922171e+04 -1.838919628975e+07 -2.022316428553e+07 2.038499461833e-04 -2.341401836881e-08 2.999865424957e-04 0.000000000000e+00 2.315669651869e+07 1.166024050590e+07  2.653195947129e-04
9.000000000000e+00 1.000173695984e+06 1.000000000000e+00 4.993011921602e+01 -2.856727519688e-05 5.015802336498e-03 -3.133048826108e+07 -1.081411686007e+04 -1.819036768570e+07 -2.062820916350e+07 2.013348398113e-04 -2.152401436195e-08 3.224161289709e-04 0.000000000000e+00 2.338302170343e+07 1.210671960854e+07  2.820891342348e-04
1.000000000000e+01 1.053298140860e+06 1.000000000000e+00 5.077618929270e+01 -3.129900157383e-05 5.339978485236e-03 -3.176529259643e+07 -1.079238487360e+04 -1.800407928510e+07 -2.099809992186e+07 1.989237640944e-04 -1.990963822373e-08 3.430742120179e-04 0.000000000000e+00 2.358915726780e+07 1.253531587791e+07  2.983705187247e-04
1.100000000000e+01 1.104123170831e+06 1.000000000000e+00 5.156404412475e+01 -3.390084817764e-05 5.643819012217e-03 -3.216787145715e+07 -1.078687245446e+04 -1.783168997967e+07 -2.134219489197e+07 1.967515053004e-04 -1.950014423023e-08 3.622579136806e-04 0.000000000000e+00 2.378058544293e+07 1.294306214402e+07  3.141132951330e-04
1.200000000000e+01 1.153030708380e+06 1.000000000000e+00 5.229317541100e+01 -3.663822417185e-05 5.929304828192e-03 -3.254011993091e+07 -1.077501462626e+04 -1.767015287659e+07 -2.165990660720e+07 1.947258542690e-04 -1.861927699288e-08 3.800585840752e-04 0.000000000000e+00 2.395672647157e+07 1.333067503172e+07  3.291738966470e-04
1.300000000000e+01 1.200273466856e+06 1.000000000000e+00 5.296692946709e+01 -3.954237441848e-05 6.198024933073e-03 -3.288461160172e+07 -1.076486771324e+04 -1.751696779427e+07 -2.195241815534e+07 1.927951639987e-04 -1.786550631106e-08 3.966130303494e-04 0.000000000000e+00 2.411799918377e+07 1.369947526260e+07  3.435211752302e-04
1.400000000000e+01 1.246562791809e+06 1.000000000000e+00 5.358946390717e+01 -4.267621929275e-05 6.451520902493e-03 -3.320294629684e+07 -1.075943862834e+04 -1.737088452618e+07 -2.222128746901e+07 1.909578784019e-04 -1.746220286150e-08 4.120255548150e-04 0.000000000000e+00 2.426503943068e+07 1.404952159011e+07  3.571420505405e-04
1.500000000000e+01 1.291444278487e+06 1.000000000000e+00 5.416470592904e+01 -4.601788705207e-05 6.690726063877e-03 -3.349767828150e+07 -1.075720336642e+04 -1.723189990264e+07 -2.246865363674e+07 1.891985766301e-04 -1.729615483335e-08 4.263757270617e-04 0.000000000000e+00 2.439941060696e+07 1.438122412837e+07  3.700306504251e-04
1.600000000000e+01 1.335057607413e+06 1.000000000000e+00 5.469619870042e+01 -4.945299960635e-05 6.916653124123e-03 -3.377146640228e+07 -1.075608575343e+04 -1.709851703576e+07 -2.269610521619e+07 1.874775050952e-04 -1.721313215372e-08 4.397781493545e-04 0.000000000000e+00 2.452202955141e+07 1.469667570539e+07  3.822356945902e-04
1.700000000000e+01 1.377533797936e+06 1.000000000000e+00 5.518705404955e+01 -5.283946902957e-05 7.130190854714e-03 -3.402704109036e+07 -1.075580595515e+04 -1.696924593848e+07 -2.290510340110e+07 1.857475206917e-04 -1.719234713929e-08 4.523424369785e-04 0.000000000000e+00 2.463379680998e+07 1.499834943166e+07  3.938201828869e-04
1.800000000000e+01 1.419000870662e+06 1.000000000000e+00 5.564000045913e+01 -5.616233858263e-05 7.332125775275e-03 -3.426574198143e+07 -1.075659533417e+04 -1.684353661711e+07 -2.309684000362e+07 1.840031328313e-04 -1.725098672364e-08 4.641332855799e-04 0.000000000000e+00 2.473537286739e+07 1.528695699961e+07  4.048146266746e-04
1.900000000000e+01 1.459547343593e+06 1.000000000000e+00 5.605743938251e+01 -5.941480420275e-05 7.523151035889e-03 -3.448873102257e+07 -1.076093342285e+04 -1.672105745316e+07 -2.327240458749e+07 1.822416529897e-04 -1.757324473923e-08 4.752034819277e-04 0.000000000000e+00 2.482739768774e+07 1.556304993933e+07  4.152451109816e-04
2.000000000000e+01 1.499256707427e+06 1.000000000000e+00 5.644149128089e+01 -6.283560600092e-05 7.703882508572e-03 -3.469487007958e+07 -1.077328602604e+04 -1.660348650673e+07 -2.343270124768e+07 1.805389353933e-04 -1.849086669103e-08 4.855242787447e-04 0.000000000000e+00 2.491035261133e+07 1.582361331584e+07  4.250554047146e-04
2.100000000000e+01 1.538052041696e+06 1.000000000000e+00 5.681650488704e+01 -6.560132879346e-05 7.876599049196e-03 -3.489384369810e+07 -1.077941177964e+04 -1.649185444272e+07 -2.358957841002e+07 1.789753527354e-04 -1.894592267243e-08 4.954974785806e-04 0.000000000000e+00 2.499175885028e+07 1.607479401032e+07  4.345895687138e-04
2.200000000000e+01 1.576080275124e+06 1.000000000000e+00 5.717306428147e+01 -6.813023969467e-05 8.041702373666e-03 -3.508331675050e+07 -1.078666476603e+04 -1.638381327471e+07 -2.373824186477e+07 1.774595676799e-04 -1.948471594752e-08 5.050322217118e-04 0.000000000000e+00 2.506845729666e+07 1.631671646507e+07  4.437641767177e-04
2.300000000000e+01 1.613412438908e+06 1.000000000000e+00 5.750843991007e+01 -7.081208554275e-05 8.199477679346e-03 -3.526057093627e+07 -1.079774486646e+04 -1.628038850495e+07 -2.387721412105e+07 1.760376674415e-04 -2.030780912203e-08 5.140355398219e-04 0.000000000000e+00 2.513939118742e+07 1.654600550735e+07  4.524734029567e-04
2.400000000000e+01 1.650098171194e+06 1.000000000000e+00 5.782231238960e+01 -7.355225425859e-05 8.350190573656e-03 -3.542693230012e+07 -1.080673656402e+04 -1.617999929306e+07 -2.400630426943e+07 1.746533080101e-04 -2.097576379793e-08 5.225590589178e-04 0.000000000000e+00 2.520441195420e+07 1.676494743640e+07  4.607657551352e-04
2.500000000000e+01 1.686186112283e+06 1.000000000000e+00 5.811508168953e+01 -7.632684357898e-05 8.494100474238e-03 -3.558307443547e+07 -1.081375188647e+04 -1.608220081160e+07 -2.412572018805e+07 1.732891913884e-04 -2.149690203724e-08 5.306270223494e-04 0.000000000000e+00 2.526366514504e+07 1.697430328509e+07  4.686600627897e-04
2.600000000000e+01 1.721714360870e+06 1.000000000000e+00 5.838737033875e+01 -7.908158936369e-05 8.631452757371e-03 -3.572989876574e+07 -1.082077546942e+04 -1.598647132351e+07 -2.423579341383e+07 1.719241503644e-04 -2.201865391339e-08 5.382711231500e-04 0.000000000000e+00 2.531738783436e+07 1.717511866760e+07  4.761847450694e-04
2.700000000000e+01 1.756710890544e+06 1.000000000000e+00 5.863986199569e+01 -8.180531923471e-05 8.762485885640e-03 -3.586784359609e+07 -1.082859150441e+04 -1.589258969586e+07 -2.433682829380e+07 1.705532093506e-04 -2.259927365547e-08 5.455108791475e-04 0.000000000000e+00 2.536575386191e+07 1.736779996617e+07  4.833548249950e-04
2.800000000000e+01 1.791214832941e+06 1.000000000000e+00 5.887323915130e+01 -8.446807505671e-05 8.887417856759e-03 -3.599749498735e+07 -1.083848257707e+04 -1.580021542192e+07 -2.442913733150e+07 1.691662076469e-04 -2.333403905269e-08 5.523705450081e-04 0.000000000000e+00 2.540894924692e+07 1.755300542436e+07  4.901917952402e-04
2.900000000000e+01 1.825251535559e+06 1.000000000000e+00 5.908816054441e+01 -8.705536481597e-05 9.006456305924e-03 -3.611932021528e+07 -1.084722815673e+04 -1.570921434847e+07 -2.451305100673e+07 1.677580642607e-04 -2.398371068472e-08 5.588673785307e-04 0.000000000000e+00 2.544719519016e+07 1.773113296317e+07  4.967101841468e-04
3.000000000000e+01 1.858831251183e+06 1.000000000000e+00 5.928525306127e+01 -8.957564989608e-05 9.119804222033e-03 -3.623348670464e+07 -1.085590247958e+04 -1.561949337692e+07 -2.458881102164e+07 1.663315380669e-04 -2.462808895341e-08 5.650138151707e-04 0.000000000000e+00 2.548059703440e+07 1.790229815964e+07  5.029186582368e-04
3.100000000000e+01 1.891871240408e+06 1.000000000000e+00 5.948289292089e+01 -9.145617556894e-05 9.229010180214e-03 -3.634664644016e+07 -1.086474071798e+04 -1.553280776670e+07 -2.466545977655e+07 1.649754159300e-04 -2.528464380604e-08 5.710805201612e-04 0.000000000000e+00 2.551497132780e+07 1.807030773373e+07  5.090536356257e-04
3.200000000000e+01 1.924446722762e+06 1.000000000000e+00 5.967285470412e+01 -9.306504046347e-05 9.334182524808e-03 -3.645622376319e+07 -1.087530253483e+04 -1.544760353950e+07 -2.473880533608e+07 1.636296647145e-04 -2.606923591533e-08 5.769695122399e-04 0.000000000000e+00 2.554754421292e+07 1.823440647179e+07  5.150331634268e-04
3.300000000000e+01 1.956585409501e+06 1.000000000000e+00 5.985229730161e+01 -9.450874926443e-05 9.435377921228e-03 -3.656154746994e+07 -1.088565252010e+04 -1.536314054805e+07 -2.480741854748e+07 1.622661320298e-04 -2.683809196363e-08 5.826551997741e-04 0.000000000000e+00 2.557736885516e+07 1.839466091923e+07  5.208379556197e-04
3.400000000000e+01 1.988314352845e+06 1.000000000000e+00 6.002037122165e+01 -9.583227657497e-05 9.532625256704e-03 -3.666239662616e+07 -1.089817027546e+04 -1.527932524175e+07 -2.487090559663e+07 1.608783966248e-04 -2.776798236204e-08 5.881264301196e-04 0.000000000000e+00 2.560420915485e+07 1.855093163233e+07  5.264577110544e-04
3.500000000000e+01 2.019666876819e+06 1.000000000000e+00 6.017687544387e+01 -9.693148193562e-05 9.625984983627e-03 -3.675980377309e+07 -1.090650323304e+04 -1.519514581994e+07 -2.492920177072e+07 1.594257033476e-04 -2.838700206794e-08 5.934183808242e-04 0.000000000000e+00 2.562805045458e+07 1.870494821349e+07  5.319358883015e-04
3.600000000000e+01 2.050678987128e+06 1.000000000000e+00 6.032184930248e+01 -9.767570026001e-05 9.715509382035e-03 -3.685503396720e+07 -1.091707816319e+04 -1.510952883336e+07 -2.498237813020e+07 1.578637037754e-04 -2.917256830799e-08 5.985735622494e-04 0.000000000000e+00 2.564898031025e+07 1.885869585210e+07  5.373250612320e-04
3.700000000000e+01 2.081413727635e+06 1.000000000000e+00 6.045543673566e+01 -9.758264488044e-05 9.801263594712e-03 -3.695252527681e+07 -1.090430090033e+04 -1.501873446028e+07 -2.503069448345e+07 1.560372053966e-04 -2.822340020924e-08 6.037405320847e-04 0.000000000000e+00 2.566731807352e+07 1.901921772809e+07  5.428114373597e-04
3.800000000000e+01 2.113459429335e+06 1.000000000000e+00 6.057803474126e+01 -8.081038937484e-05 9.883358017979e-03 -3.719409706131e+07 -1.102624540423e+04 -1.479957871360e+07 -2.507988119418e+07 1.488914740852e-04 -3.728213478476e-08 6.137075376455e-04 0.000000000000e+00 2.569118565636e+07 1.941589589308e+07  5.544635218397e-04
3.900000000000e+01 2.143157947788e+06 1.000000000000e+00 6.068935067269e+01 -8.665871595819e-05 9.961831801290e-03 -3.722803554017e+07 -1.102591607234e+04 -1.475720604991e+07 -2.511586269246e+07 1.489673576636e-04 -3.725767013007e-08 6.166178350902e-04 0.000000000000e+00 2.570036809418e+07 1.948005911100e+07  5.572727364436e-04
4.000000000000e+01 2.172544101843e+06 1.000000000000e+00 6.078974259762e+01 -9.238016006402e-05 1.003677493783e-02 -3.725808423876e+07 -1.102487464491e+04 -1.471490086520e+07 -2.514687392791e+07 1.490031090323e-04 -3.718030694945e-08 6.193410164102e-04 0.000000000000e+00 2.570661967729e+07 1.954102508923e+07  5.599120361808e-04
4.200000000000e+01 2.229827605392e+06 1.000000000000e+00 6.098783794099e+01 -1.024062027650e-04 1.017712077699e-02 -3.731624239677e+07 -1.102499906035e+04 -1.463510025908e+07 -2.520896985097e+07 1.491493688772e-04 -3.718954923960e-08 6.246114589226e-04 0.000000000000e+00 2.572010416894e+07 1.965741214680e+07  5.649996531957e-04
4.400000000000e+01 2.285593809494e+06 1.000000000000e+00 6.116317928787e+01 -1.119087693097e-04 1.030795982652e-02 -3.736569787663e+07 -1.102402217242e+04 -1.455684047457e+07 -2.526096789217e+07 1.492438068697e-04 -3.711698042154e-08 6.294496067345e-04 0.000000000000e+00 2.572783541446e+07 1.976546909298e+07  5.696833066700e-04
5.000000000000e+01 2.437116678573e+06 1.000000000000e+00 6.137948261791e+01 -1.365067218808e-04 1.058165949025e-02 -3.741484111681e+07 -1.102189719964e+04 -1.435252392081e+07 -2.528793825726e+07 1.484202429379e-04 -3.695912530103e-08 6.380402637207e-04 0.000000000000e+00 2.568510109830e+07 1.998144468022e+07  5.782956508525e-04
6.500000000000e+01 2.768502507756e+06 1.000000000000e+00 6.141806964377e+01 -1.795253438852e-04 1.104599815364e-02 -3.732559251701e+07 -1.101886956386e+04 -1.384513171236e+07 -2.511825890378e+07 1.454328149443e-04 -3.673421521444e-08 6.505838840482e-04 0.000000000000e+00 2.542966104438e+07 2.034004865666e+07  5.914337260248e-04
8.000000000000e+01 3.023556374630e+06 1.000000000000e+00 6.104768186241e+01 -2.078165363282e-04 1.126636456239e-02 -3.711651197181e+07 -1.101744796237e+04 -1.346271382962e+07 -2.480795082443e+07 1.416729351043e-04 -3.662861053246e-08 6.532622481740e-04 0.000000000000e+00 2.512905887529e+07 2.049046088847e+07  5.952085427509e-04
1.000000000000e+02 3.324236305531e+06 1.000000000000e+00 6.054231028009e+01 -2.327976331469e-04 1.145084985896e-02 -3.684305641089e+07 -1.101478359910e+04 -1.305436443032e+07 -2.442347904937e+07 1.375494757222e-04 -3.643068640389e-08 6.541491313601e-04 0.000000000000e+00 2.477363329686e+07 2.060831462248e+07  5.973718090515e-04
1.860000000000e+02 3.922717201764e+06 1.000000000000e+00 5.903043692346e+01 -2.732880116914e-04 1.167017740832e-02 -3.606274634262e+07 -1.101174658203e+04 -1.213731290844e+07 -2.337936110167e+07 1.277508973431e-04 -3.620507942122e-08 6.494295212582e-04 0.000000000000e+00 2.385980678424e+07 2.073257100933e+07  5.959142511169e-04
2.720000000000e+02 4.213038211969e+06 1.000000000000e+00 5.757509736639e+01 -2.842370265972e-04 1.150208751963e-02 -3.546790391101e+07 -1.101034296039e+04 -1.179293675647e+07 -2.258543410609e+07 1.203563278242e-04 -3.610081038544e-08 6.327319184955e-04 0.000000000000e+00 2.328209159119e+07 2.052974457283e+07  5.819639508018e-04
3.580000000000e+02 4.354403691727e+06 1.000000000000e+00 5.648588338060e+01 -2.875573302070e-04 1.132619459437e-02 -3.503286264369e+07 -1.100965533789e+04 -1.158954570556e+07 -2.201106929343e+07 1.151814532828e-04 -3.604972985667e-08 6.189528930590e-04 0.000000000000e+00 2.287782588089e+07 2.034410347357e+07  5.701557341368e-04
4.440000000000e+02 4.426532453840e+06 1.000000000000e+00 5.562786365399e+01 -2.882735680629e-04 1.116160537684e-02 -3.470122574646e+07 -1.100864801334e+04 -1.146693082712e+07 -2.157340405884e+07 1.112432578956e-04 -3.597490003308e-08 6.072510226880e-04 0.000000000000e+00 2.258052021081e+07 2.017812789862e+07  5.599788288330e-04
5.300000000000e+02 4.465496889446e+06 1.000000000000e+00 5.495295162937e+01 -2.878750796836e-04 1.101895898309e-02 -3.444601447641e+07 -1.100833311165e+04 -1.138960916400e+07 -2.123666759659e+07 1.082151793281e-04 -3.595150733600e-08 5.976156158632e-04 0.000000000000e+00 2.235743041233e+07 2.003808820468e+07  5.515286685188e-04
6.160000000000e+02 4.488012314786e+06 1.000000000000e+00 5.442984926954e+01 -2.870090125069e-04 1.090073440795e-02 -3.425154273303e+07 -1.100782381528e+04 -1.134089362523e+07 -2.098009329771e+07 1.059085129806e-04 -3.591367389160e-08 5.898951476302e-04 0.000000000000e+00 2.219084321866e+07 1.992415757334e+07  5.447182613873e-04
7.020000000000e+02 4.501822576458e+06 1.000000000000e+00 5.404176066671e+01 -2.861472691144e-04 1.081004738845e-02 -3.410864819670e+07 -1.100806841379e+04 -1.130932496179e+07 -2.079154995271e+07 1.042129858016e-04 -3.593184406679e-08 5.840646594582e-04 0.000000000000e+00 2.206984103707e+07 1.983768589647e+07  5.395597785674e-04
7.880000000000e+02 4.511441113274e+06 1.000000000000e+00 5.372925602141e+01 -2.849301327689e-04 1.072832555989e-02 -3.399832209341e+07 -1.100730886320e+04 -1.129814746869e+07 -2.064547275386e+07 1.028850879668e-04 -3.587542030845e-08 5.790540989589e-04 0.000000000000e+00 2.198064743865e+07 1.976068989723e+07  5.350822019085e-04
8.740000000000e+02 4.519827167133e+06 1.000000000000e+00 5.323958981565e+01 -2.838455780368e-04 1.061279849652e-02 -3.381777845472e+07 -1.100729242549e+04 -1.125785042132e+07 -2.040736464969e+07 1.007469792487e-04 -3.587419922171e-08 5.717068311348e-04 0.000000000000e+00 2.182766450858e+07 1.965329347555e+07  5.285838837896e-04
9.370000000000e+02 4.525201002276e+06 1.000000000000e+00 5.288422667361e+01 -2.821006941875e-04 1.051784266224e-02 -3.369015588328e+07 -1.100657006650e+04 -1.124239659325e+07 -2.023981703389e+07 9.926404902970e-05 -3.582053826794e-08 5.660576333049e-04 0.000000000000e+00 2.172412317014e+07 1.956741952532e+07  5.235316865634e-04
1.000000000000e+03 4.529391016052e+06 1.000000000000e+00 5.259535236228e+01 -2.802584836895e-04 1.043834221842e-02 -3.358494476049e+07 -1.100801237288e+04 -1.122908558817e+07 -2.010299548724e+07 9.808994757224e-05 -3.592768102783e-08 5.614700989038e-04 0.000000000000e+00 2.163900861197e+07 1.949736391789e+07  5.194186568514e-04
1.100000000000e+03 4.533536316160e+06 1.000000000000e+00 5.229973550702e+01 -2.780999578087e-04 1.035516946001e-02 -3.347671774089e+07 -1.100746062835e+04 -1.121589358220e+07 -1.996296849642e+07 9.690880578390e-05 -3.588669429097e-08 5.567590851805e-04 0.000000000000e+00 2.155185993984e+07 1.942521244937e+07  5.151865112548e-04
1.200000000000e+03 4.536797682874e+06 1.000000000000e+00 5.204967447209e+01 -2.764784606383e-04 1.028604958385e-02 -3.338558570253e+07 -1.100630144872e+04 -1.120444441323e+07 -1.984453763055e+07 9.589484933361e-05 -3.580058380394e-08 5.527854792958e-04 0.000000000000e+00 2.147818924877e+07 1.936510972625e+07  5.116232323137e-04
1.300000000000e+03 4.539703052077e+06 1.000000000000e+00 5.181072073768e+01 -2.749887437281e-04 1.022026220740e-02 -3.329869551567e+07 -1.100727566428e+04 -1.119357562184e+07 -1.973144097684e+07 9.492146627936e-05 -3.587295410312e-08 5.489884444097e-04 0.000000000000e+00 2.140790403812e+07 1.930806299221e+07  5.082200434879e-04
1.400000000000e+03 4.542442562524e+06 1.000000000000e+00 5.156546510930e+01 -2.734236011693e-04 1.015228521050e-02 -3.320957227946e+07 -1.100785200876e+04 -1.118277902982e+07 -1.961549039872e+07 9.392502215109e-05 -3.591576826443e-08 5.450827249261e-04 0.000000000000e+00 2.133594723600e+07 1.924954585322e+07  5.047179248411e-04
1.500000000000e+03 4.545082446453e+06 1.000000000000e+00 5.130383717884e+01 -2.716631923212e-04 1.007889905884e-02 -3.311448853498e+07 -1.100776939814e+04 -1.117180753077e+07 -1.949196888649e+07 9.286876220590e-05 -3.590963147561e-08 5.409022958648e-04 0.000000000000e+00 2.125942165074e+07 1.918697609366e+07  5.009660446005e-04
1.600000000000e+03 4.547643486991e+06 1.000000000000e+00 5.101969495005e+01 -2.696344347186e-04 9.998130170816e-03 -3.301118173699e+07 -1.100792708733e+04 -1.116053384571e+07 -1.935800979565e+07 9.173024847166e-05 -3.592134552970e-08 5.363454093648e-04 0.000000000000e+00 2.117657512612e+07 1.911882915250e+07  4.968719581891e-04
1.700000000000e+03 4.550130771773e+06 1.000000000000e+00 5.070924720998e+01 -2.672918518184e-04 9.908757116966e-03 -3.289825947834e+07 -1.100774626610e+04 -1.114888578113e+07 -1.921184682238e+07 9.049559335682e-05 -3.590791309523e-08 5.313491413275e-04 0.000000000000e+00 2.108633069395e+07 1.904422767384e+07  4.923785235472e-04
1.800000000000e+03 4.552544175197e+06 1.000000000000e+00 5.037020576711e+01 -2.646082920447e-04 9.810042915299e-03 -3.277488007729e+07 -1.100614748337e+04 -1.113682066216e+07 -1.905241379320e+07 8.915645859791e-05 -3.578914637850e-08 5.258754760909e-04 0.000000000000e+00 2.098803817755e+07 1.896271390912e+07  4.874512275032e-04
1.900000000000e+03 4.554883463306e+06 1.000000000000e+00 5.000128389307e+01 -2.615680591812e-04 9.701572158882e-03 -3.264057813437e+07 -1.100749414821e+04 -1.112432666434e+07 -1.887911718639e+07 8.770808536757e-05 -3.588918433799e-08 5.199028077569e-04 0.000000000000e+00 2.088134066170e+07 1.887411438684e+07  4.820704946073e-04