 TITLE = "Time curves in points"
 VARIABLES = "TIME"  "PRESSURE1"  "SATURATION1"  "TEMPERATURE1"  "DISPLACEMENT_X1"  "DISPLACEMENT_Y1"  "STRESS_XX"  "STRESS_XY"  "STRESS_YY"  "STRESS_ZZ"  "STRAIN_XX"  "STRAIN_XY"  "STRAIN_YY"  "STRAIN_PLS"  p_(1st_Invariant)  q_(2nd_Invariant)   Effective_Strain
 ZONE T="POINT=POINT2"
0.000000000000e+00 -7.000000000000e+07 6.684759947500e-01 2.500000000000e+01 0.000000000000e+00 0.000000000000e+00 0.000000000000e+00 0.000000000000e+00 0.000000000000e+00 0.000000000000e+00 0.000000000000e+00 0.000000000000e+00 0.000000000000e+00 0.000000000000e+00 -0.000000000000e+00 0.000000000000e+00  0.000000000000e+00
1.000000000000e-03 -6.999999537629e+07 6.684760111000e-01 3.230801431826e+01 0.000000000000e+00 1.043277695066e-04 2.085619235076e+07 -5.996205588570e+05 1.473390511190e+07 1.045806826468e+07 2.629041963369e-05 -4.249693651355e-04 -5.267767987499e-03 0.000000000000e+00 -1.534938857578e+07 9.111625408676e+06  5.332012703578e-03
2.000000000000e-03 -7.014842512155e+07 6.679527077958e-01 3.570326123088e+01 0.000000000000e+00 1.040856530396e-04 2.080921541043e+07 -6.044927917619e+05 1.468725557807e+07 1.042464121321e+07 2.643584968432e-05 -4.260523206608e-04 -5.293422118835e-03 0.000000000000e+00 -1.530703740057e+07 9.101651605117e+06  5.357752740990e-03
3.000000000000e-03 -7.034550667885e+07 6.672586191517e-01 3.807368317183e+01 0.000000000000e+00 1.036536188144e-04 2.075827184410e+07 -6.104045047292e+05 1.463327740301e+07 1.038860128193e+07 2.652616547314e-05 -4.284099212160e-04 -5.336909581514e-03 0.000000000000e+00 -1.526005017635e+07 9.091162241445e+06  5.401433184552e-03
4.000000000000e-03 -7.057351402536e+07 6.664559424679e-01 3.995365014050e+01 0.000000000000e+00 1.032275136224e-04 2.070478492864e+07 -6.169308781309e+05 1.457463085598e+07 1.035072812123e+07 2.659713464104e-05 -4.315086044991e-04 -5.390753343720e-03 0.000000000000e+00 -1.521004796862e+07 9.080480656015e+06  5.455539078787e-03
1.000000000000e-02 -7.196262412891e+07 6.615784115662e-01 4.632211268169e+01 0.000000000000e+00 1.003625828385e-04 2.040841521163e+07 -6.527000048346e+05 1.423225421882e+07 1.013930369281e+07 2.689141442619e-05 -4.537164933819e-04 -5.745575476881e-03 0.000000000000e+00 -1.492665770775e+07 9.025185975402e+06  5.812438673145e-03
2.000000000000e-02 -7.480070964429e+07 6.516521544380e-01 5.241702049242e+01 0.000000000000e+00 9.845167256144e-05 1.989329570234e+07 -7.124795197370e+05 1.358591810399e+07 9.759446186133e+06 2.836938123718e-05 -5.049392824806e-04 -6.486463651165e-03 0.000000000000e+00 -1.441288666415e+07 8.948898477461e+06  6.559262421710e-03
3.000000000000e-02 -7.816650870982e+07 6.399278891400e-01 5.643109114043e+01 0.000000000000e+00 9.868121227099e-05 1.935949275147e+07 -7.677663865800e+05 1.285921081049e+07 9.348741218137e+06 3.174016171235e-05 -5.710181840833e-04 -7.359885245732e-03 0.000000000000e+00 -1.385581492670e+07 8.897443444026e+06  7.441821518671e-03
4.000000000000e-02 -8.169316738156e+07 6.276978445521e-01 5.929896122170e+01 0.000000000000e+00 1.012644161907e-04 1.885490424255e+07 -8.089539894117e+05 1.211527214719e+07 8.942172036262e+06 3.709735229414e-05 -6.460652617766e-04 -8.269471853694e-03 0.000000000000e+00 -1.330411614200e+07 8.879186455702e+06  8.363283890354e-03
5.000000000000e-02 -8.517090806374e+07 6.194374449236e-01 6.146291375107e+01 0.000000000000e+00 1.048288621785e-04 1.830899565600e+07 -8.367308392672e+05 1.132270303887e+07 8.503936698481e+06 3.572212347822e-05 -7.270775652233e-04 -9.252261297878e-03 0.000000000000e+00 -1.271187846445e+07 8.862663830885e+06  9.355322066738e-03
6.000000000000e-02 -8.849319630215e+07 6.136977543094e-01 6.316215568308e+01 0.000000000000e+00 1.107500201671e-04 1.777694116337e+07 -8.513323008454e+05 1.051934053883e+07 8.064967359103e+06 3.094848674233e-05 -8.112797361996e-04 -1.025040315791e-02 0.000000000000e+00 -1.212041635377e+07 8.870393165592e+06  1.036163508361e-02
7.000000000000e-02 -9.165922579027e+07 6.073336018048e-01 6.454193319690e+01 0.000000000000e+00 1.166363795320e-04 1.732739040034e+07 -8.549154083442e+05 9.751168837169e+06 7.664536626350e+06 2.934244779059e-05 -8.966157671563e-04 -1.119347147364e-02 0.000000000000e+00 -1.158103195462e+07 8.930542882368e+06  1.131524935494e-02
8.000000000000e-02 -9.465879761346e+07 6.013430836151e-01 6.569457407697e+01 0.000000000000e+00 1.232653415531e-04 1.692000552705e+07 -8.513948325245e+05 9.004662572647e+06 7.284939459638e+06 2.777752415372e-05 -9.811396695015e-04 -1.209881272541e-02 0.000000000000e+00 -1.106986918645e+07 9.022024128760e+06  1.223135402036e-02
9.000000000000e-02 -9.750707619774e+07 5.956817386153e-01 6.668203162331e+01 0.000000000000e+00 1.293766833598e-04 1.654599074428e+07 -8.419123460520e+05 8.293647211872e+06 6.927911072855e+06 2.646629145221e-05 -1.063180769350e-03 -1.295689839533e-02 0.000000000000e+00 -1.058918300967e+07 9.130354974889e+06  1.310022509675e-02
1.000000000000e-01 -1.002222913215e+08 5.902571538670e-01 6.754398409653e+01 0.000000000000e+00 1.347799848394e-04 1.619909877342e+07 -8.283155416359e+05 7.619139402052e+06 6.591819418776e+06 2.547312049935e-05 -1.142138966598e-03 -1.376893358356e-02 0.000000000000e+00 -1.013668586475e+07 9.248987662973e+06  1.392294375733e-02
2.000000000000e-01 -1.165730051073e+08 5.554399117346e-01 7.209999816912e+01 0.000000000000e+00 2.286636010875e-04 1.418839341490e+07 -6.731398655384e+05 3.681175828821e+06 4.637941671362e+06 1.437707098217e-05 -1.601558588757e-03 -1.847126315783e-02 0.000000000000e+00 -7.502503638360e+06 1.013032216802e+07  1.868551047596e-02
3.000000000000e-01 -1.320612907530e+08 5.260679366107e-01 7.506939457768e+01 0.000000000000e+00 3.376623895147e-04 1.232003174794e+07 -5.774364418398e+05 4.217153523164e+05 2.958903402678e+06 -4.895308047403e-07 -1.965851200120e-03 -2.240826290122e-02 0.000000000000e+00 -5.233550167646e+06 1.090042607461e+07  2.266523747456e-02
4.000000000000e-01 -1.453594926434e+08 5.073958247887e-01 7.718447468360e+01 0.000000000000e+00 4.424548510775e-04 1.063584459717e+07 -5.251127938631e+05 -2.419075889014e+06 1.477480716429e+06 -3.103130281725e-05 -2.256692100137e-03 -2.577487686163e-02 0.000000000000e+00 -3.231416474863e+06 1.164354310186e+07  2.605423938382e-02
5.000000000000e-01 -1.562659469221e+08 4.919821079868e-01 7.880558933075e+01 0.000000000000e+00 5.442865088671e-04 9.303396311012e+06 -4.856602858377e+05 -4.674133806024e+06 3.068060595646e+05 -5.467561902609e-05 -2.480346369704e-03 -2.836374284830e-02 0.000000000000e+00 -1.645356188184e+06 1.229908414780e+07  2.866025901716e-02
6.000000000000e-01 -1.651385675924e+08 4.786471658047e-01 8.008711716196e+01 0.000000000000e+00 6.436206454469e-04 8.233694250312e+06 -4.516439138791e+05 -6.422708878057e+06 -6.097067514516e+05 -7.099229247438e-05 -2.650453653945e-03 -3.033635826292e-02 0.000000000000e+00 -4.004262069346e+05 1.280684935909e+07  3.064670844738e-02
7.000000000000e-01 -1.721817905873e+08 4.692891129277e-01 8.112263484449e+01 0.000000000000e+00 7.404816028566e-04 7.307100854164e+06 -4.225983939569e+05 -7.872879573474e+06 -1.381482770202e+06 -8.751838313097e-05 -2.785746764348e-03 -3.193835649277e-02 0.000000000000e+00 6.490871631707e+05 1.321236277231e+07  3.225759192364e-02
8.000000000000e-01 -1.776721351703e+08 4.634421306070e-01 8.196512340546e+01 0.000000000000e+00 8.351171620995e-04 6.489556329928e+06 -4.022151909427e+05 -9.100505281146e+06 -2.045554635774e+06 -1.069442549998e-04 -2.893258999672e-03 -3.327754765074e-02 0.000000000000e+00 1.552167862331e+06 1.353959251975e+07  3.360000915322e-02
9.000000000000e-01 -1.818376437115e+08 4.590005577855e-01 8.266346189765e+01 0.000000000000e+00 9.275082118334e-04 5.804392730696e+06 -3.867258958146e+05 -1.007937820041e+07 -2.583644919864e+06 -1.233232155440e-04 -2.974658052036e-03 -3.430439790873e-02 0.000000000000e+00 2.286210129860e+06 1.377927272288e+07  3.462834341140e-02
1.000000000000e+00 -1.849375884702e+08 4.556906259848e-01 8.324725620184e+01 0.000000000000e+00 1.017679398100e-03 5.224995810688e+06 -3.767543069703e+05 -1.089351295388e+07 -3.032599291831e+06 -1.377062976063e-04 -3.037536119271e-03 -3.511571852798e-02 0.000000000000e+00 2.900372145009e+06 1.397569011033e+07  3.543976399755e-02
2.000000000000e+00 -1.859804453309e+08 4.546202524078e-01 8.527651483933e+01 0.000000000000e+00 1.765396971352e-03 2.426705996823e+06 -3.509880981182e+05 -1.421008115840e+07 -4.959121832170e+06 -1.767468791932e-04 -3.216718269022e-03 -3.738298631438e-02 0.000000000000e+00 5.580832331250e+06 1.445082253530e+07  3.770879749264e-02
3.000000000000e+00 -1.776019344685e+08 4.636184676660e-01 8.587481661742e+01 0.000000000000e+00 2.399870844972e-03 7.494832254363e+05 -3.484013756874e+05 -1.579036747159e+07 -5.953910694445e+06 -1.884007452708e-04 -3.237365911302e-03 -3.765444795483e-02 0.000000000000e+00 6.998264980199e+06 1.442196821112e+07  3.797684075456e-02
4.000000000000e+00 -1.656731212867e+08 4.781396531610e-01 8.588475854181e+01 0.000000000000e+00 2.952370121696e-03 -3.611333183067e+05 -3.612532965252e+05 -1.651131084144e+07 -6.487186881973e+06 -1.921860533955e-04 -3.179976334923e-03 -3.700308841449e-02 0.000000000000e+00 7.786543680573e+06 1.413546693806e+07  3.731609248884e-02
5.000000000000e+00 -1.532585326419e+08 4.965899669956e-01 8.570159493237e+01 0.000000000000e+00 3.441763245880e-03 -1.238545455604e+06 -3.814613593107e+05 -1.684246422426e+07 -6.824165309694e+06 -2.012475425344e-04 -3.087612064522e-03 -3.604777618694e-02 0.000000000000e+00 8.301724996519e+06 1.370986542324e+07  3.634320001058e-02
6.000000000000e+00 -1.415638294401e+08 5.131309591161e-01 8.556072892089e+01 0.000000000000e+00 3.883425100252e-03 -1.855075216246e+06 -3.928539912937e+05 -1.687967009211e+07 -6.983460777204e+06 -1.942590125175e-04 -2.985793770353e-03 -3.484682572655e-02 0.000000000000e+00 8.572735361852e+06 1.324574939369e+07  3.513281348174e-02
7.000000000000e+00 -1.312098372558e+08 5.277796070512e-01 8.529634995440e+01 0.000000000000e+00 4.284725973914e-03 -2.307269660027e+06 -4.035817236518e+05 -1.684645686220e+07 -7.071156820705e+06 -1.828024026857e-04 -2.889269635873e-03 -3.365858605125e-02 0.000000000000e+00 8.741627780979e+06 1.285722259135e+07  3.393854148860e-02
8.000000000000e+00 -1.217288193072e+08 5.458471152866e-01 8.521790364518e+01 0.000000000000e+00 4.656216481165e-03 -2.772348259146e+06 -4.200214794202e+05 -1.686652592518e+07 -7.187409191358e+06 -1.839062816119e-04 -2.795561154138e-03 -3.262295510870e-02 0.000000000000e+00 8.942094458560e+06 1.250764598401e+07  3.288976955947e-02
9.000000000000e+00 -1.134125487104e+08 5.641209541960e-01 8.513892269604e+01 0.000000000000e+00 5.000135196372e-03 -3.241083175704e+06 -4.328083517480e+05 -1.688005399323e+07 -7.306868002381e+06 -1.868515189202e-04 -2.709365723872e-03 -3.168376699443e-02 0.000000000000e+00 9.142668390437e+06 1.215158342870e+07  3.193740490924e-02
1.000000000000e+01 -1.058570554266e+08 5.805067196917e-01 8.505428660235e+01 0.000000000000e+00 5.320532076577e-03 -3.635036930539e+06 -4.438627737580e+05 -1.679301514014e+07 -7.370822113995e+06 -1.858928137081e-04 -2.620730162106e-03 -3.070101557777e-02 0.000000000000e+00 9.266291394891e+06 1.176962802927e+07  3.094324635882e-02
1.100000000000e+01 -9.898994285616e+07 5.942872968029e-01 8.502207383597e+01 0.000000000000e+00 5.622846515831e-03 -3.935103698422e+06 -4.510430070136e+05 -1.660138423423e+07 -7.371983637135e+06 -1.803160374845e-04 -2.531022595320e-03 -2.967491421957e-02 0.000000000000e+00 9.302823856595e+06 1.137209920093e+07  2.990819972852e-02
1.200000000000e+01 -9.285900955932e+07 6.066046617614e-01 8.499386753421e+01 0.000000000000e+00 5.905904433775e-03 -4.190826496328e+06 -4.561785774690e+05 -1.638060654932e+07 -7.350937198678e+06 -1.761239884607e-04 -2.443373748819e-03 -2.866854443042e-02 0.000000000000e+00 9.307456748107e+06 1.098545764501e+07  2.889251575857e-02
1.300000000000e+01 -8.723559283915e+07 6.179005119365e-01 8.494478104274e+01 0.000000000000e+00 6.172477777923e-03 -4.394653221368e+06 -4.688234979885e+05 -1.617463857676e+07 -7.319129393476e+06 -1.734124344110e-04 -2.357904972937e-03 -2.769492952728e-02 0.000000000000e+00 9.296140397201e+06 1.065503241626e+07  2.790906117782e-02
1.400000000000e+01 -8.191557123548e+07 6.341283836476e-01 8.485670668524e+01 0.000000000000e+00 6.424680183483e-03 -4.651836163366e+06 -4.885854954833e+05 -1.605242033901e+07 -7.336613126519e+06 -1.805307099153e-04 -2.275852787356e-03 -2.684784935157e-02 0.000000000000e+00 9.346956542966e+06 1.035806296977e+07  2.704683461272e-02
1.500000000000e+01 -7.687639089410e+07 6.521379232268e-01 8.475437566797e+01 0.000000000000e+00 6.662837761608e-03 -4.894305497064e+06 -5.050903895059e+05 -1.590706256563e+07 -7.344305852675e+06 -1.901305591532e-04 -2.193773020293e-03 -2.601114867529e-02 0.000000000000e+00 9.381891305124e+06 1.005322884273e+07  2.619367120107e-02
1.600000000000e+01 -7.215348379109e+07 6.690333980841e-01 8.463967700494e+01 0.000000000000e+00 6.887639788088e-03 -5.082914054553e+06 -5.183855176867e+05 -1.571081523126e+07 -7.318526225713e+06 -1.954286981444e-04 -2.113046745692e-03 -2.514377451788e-02 0.000000000000e+00 9.370751837175e+06 9.746617393330e+06  2.531261886708e-02
1.700000000000e+01 -6.769428334393e+07 6.850015615804e-01 8.450987153022e+01 0.000000000000e+00 7.100305728143e-03 -5.235526789211e+06 -5.300643864264e+05 -1.547383889686e+07 -7.268275239346e+06 -1.975776123223e-04 -2.032793330035e-03 -2.425571936236e-02 0.000000000000e+00 9.325880308471e+06 9.433244021413e+06  2.441276956327e-02
1.800000000000e+01 -6.345955101593e+07 7.001742662529e-01 8.436409299549e+01 0.000000000000e+00 7.301697079240e-03 -5.354949239291e+06 -5.413584021235e+05 -1.519925362289e+07 -7.195128517499e+06 -1.972083439042e-04 -1.952283118620e-03 -2.334061211331e-02 0.000000000000e+00 9.249777126559e+06 9.113753913531e+06  2.348732274271e-02
1.900000000000e+01 -5.941023049145e+07 7.146812982532e-01 8.420081486384e+01 0.000000000000e+00 7.492370446670e-03 -5.447755702818e+06 -5.522505334346e+05 -1.488616931954e+07 -7.101073470387e+06 -1.943531234418e-04 -1.871228008681e-03 -2.240187388927e-02 0.000000000000e+00 9.144999497581e+06 8.782218185954e+06  2.253957265583e-02
2.000000000000e+01 -5.565211249696e+07 7.281320173324e-01 8.402387835910e+01 0.000000000000e+00 7.674478771358e-03 -5.515912121195e+06 -5.623159157834e+05 -1.455035757853e+07 -6.992522409798e+06 -1.901679141941e-04 -1.791739990849e-03 -2.147300310900e-02 0.000000000000e+00 9.019597369840e+06 8.450433427893e+06  2.160262823654e-02
2.100000000000e+01 -5.203177275289e+07 7.405019143646e-01 8.393585209512e+01 0.000000000000e+00 7.847251256576e-03 -5.550107302098e+06 -5.711513878818e+05 -1.417273514451e+07 -6.859705399257e+06 -1.835936326512e-04 -1.711366114302e-03 -2.051802767580e-02 0.000000000000e+00 8.860849281956e+06 8.108712770446e+06  2.064079719930e-02
2.200000000000e+01 -4.864969756739e+07 7.519730032904e-01 8.384667550381e+01 0.000000000000e+00 8.012697822468e-03 -5.578745909774e+06 -5.794435630803e+05 -1.380048668272e+07 -6.727231449044e+06 -1.764396218188e-04 -1.633820590883e-03 -1.958720384597e-02 0.000000000000e+00 8.702154680514e+06 7.776937347987e+06  1.970385332300e-02
2.300000000000e+01 -4.551829342469e+07 7.625093979779e-01 8.374889319750e+01 0.000000000000e+00 8.171517228121e-03 -5.591562429117e+06 -5.899621189893e+05 -1.343405182339e+07 -6.592290807487e+06 -1.696052569795e-04 -1.558423236414e-03 -1.868754364550e-02 0.000000000000e+00 8.539301686666e+06 7.463381364919e+06  1.879812748002e-02
2.400000000000e+01 -4.245444098310e+07 7.737347795035e-01 8.363642393930e+01 0.000000000000e+00 8.322849374706e-03 -5.584129974408e+06 -6.023732814316e+05 -1.304949922525e+07 -6.445665163346e+06 -1.633213245521e-04 -1.481113868693e-03 -1.777444985781e-02 0.000000000000e+00 8.359764787669e+06 7.150584824737e+06  1.787836373343e-02
2.500000000000e+01 -3.942550691799e+07 7.880802988662e-01 8.350774196691e+01 0.000000000000e+00 8.467269391223e-03 -5.579892849662e+06 -6.161133538425e+05 -1.266162151171e+07 -6.300926060933e+06 -1.595879107403e-04 -1.401727058841e-03 -1.686090818860e-02 0.000000000000e+00 8.180813474103e+06 6.833988233124e+06  1.695639738792e-02
2.600000000000e+01 -3.644498876568e+07 8.027887183423e-01 8.336628324321e+01 0.000000000000e+00 8.605198026371e-03 -5.552375173281e+06 -6.296959662334e+05 -1.223841029431e+07 -6.137435028672e+06 -1.555721181742e-04 -1.319445018997e-03 -1.591310784798e-02 0.000000000000e+00 7.976073498754e+06 6.505626869305e+06  1.599994917633e-02
2.700000000000e+01 -3.351920165900e+07 8.178083342740e-01 8.321197712483e+01 0.000000000000e+00 8.736825782782e-03 -5.504389314091e+06 -6.436274828564e+05 -1.178310423887e+07 -5.957083078586e+06 -1.511968703814e-04 -1.234460201211e-03 -1.493396018007e-02 0.000000000000e+00 7.748192210517e+06 6.166654414322e+06  1.501198638013e-02
2.800000000000e+01 -3.063587428937e+07 8.331721876297e-01 8.304476669378e+01 0.000000000000e+00 8.862627913031e-03 -5.435928542258e+06 -6.578082038075e+05 -1.129561474650e+07 -5.759747196929e+06 -1.463415332928e-04 -1.146644912386e-03 -1.392073307629e-02 0.000000000000e+00 7.497096828564e+06 5.817339609209e+06  1.398983300358e-02
2.900000000000e+01 -2.778266745002e+07 8.489447365068e-01 8.286463317650e+01 0.000000000000e+00 8.982589493960e-03 -5.346263196299e+06 -6.721240094837e+05 -1.077089157623e+07 -5.543488849254e+06 -1.410445920802e-04 -1.055388414770e-03 -1.286725220334e-02 0.000000000000e+00 7.220214540594e+06 5.454435552523e+06  1.292720969975e-02
3.000000000000e+01 -2.494625785760e+07 8.651064768459e-01 8.267160961249e+01 0.000000000000e+00 9.096889463723e-03 -5.232174663082e+06 -6.863858165908e+05 -1.020619654620e+07 -5.306292130841e+06 -1.350885452669e-04 -9.604345643672e-04 -1.176831424317e-02 0.000000000000e+00 6.914887780042e+06 5.078494034050e+06  1.181901045972e-02
3.100000000000e+01 -2.211080818985e+07 8.817057092149e-01 8.254988010090e+01 0.000000000000e+00 9.207120325981e-03 -5.093235846808e+06 -7.003040200929e+05 -9.597948551987e+06 -5.046820881668e+06 -1.283720058135e-04 -8.612807599521e-04 -1.061690063909e-02 0.000000000000e+00 6.579335093488e+06 4.687745102930e+06  1.065821558067e-02
3.200000000000e+01 -1.931293995338e+07 8.984579043525e-01 8.242710315028e+01 0.000000000000e+00 9.313550507837e-03 -4.938477822894e+06 -7.136855646819e+05 -8.963231559825e+06 -4.773450001642e+06 -1.208936619581e-04 -7.598943250736e-04 -9.433767533356e-03 0.000000000000e+00 6.225053128120e+06 4.291633071538e+06  9.465855513559e-03
3.300000000000e+01 -1.648426519095e+07 9.156054860513e-01 8.229753169904e+01 0.000000000000e+00 9.415970861165e-03 -4.753560074472e+06 -7.258309227180e+05 -8.276956978681e+06 -4.473160646070e+06 -1.123093634241e-04 -6.536273805909e-04 -8.185430835886e-03 0.000000000000e+00 5.834559233074e+06 3.880901911557e+06  8.208305372830e-03
3.400000000000e+01 -1.359717284376e+07 9.331297765549e-01 8.215967180486e+01 0.000000000000e+00 9.514557394771e-03 -4.529878121459e+06 -7.359572696154e+05 -7.526281212268e+06 -4.138868379925e+06 -1.022601655647e-04 -5.414950349608e-04 -6.855923049513e-03 0.000000000000e+00 5.398342571217e+06 3.453670830689e+06  6.869694374194e-03
3.500000000000e+01 -1.061651868624e+07 9.509192799099e-01 8.201290188412e+01 0.000000000000e+00 9.609254594981e-03 -4.264869059994e+06 -7.432839297400e+05 -6.701526774302e+06 -3.766167494792e+06 -9.059891042231e-05 -4.222779590846e-04 -5.428352468385e-03 0.000000000000e+00 4.910854443029e+06 3.009747843998e+06  5.433081251808e-03
3.600000000000e+01 -7.507176788468e+06 9.686287122736e-01 8.185699463653e+01 0.000000000000e+00 9.700113075055e-03 -3.954331162285e+06 -7.464779344260e+05 -5.797530872112e+06 -3.351496681360e+06 -7.663278686044e-05 -2.956738622918e-04 -3.889255742543e-03 0.000000000000e+00 4.367786238586e+06 2.558051375905e+06  3.885409554614e-03
3.700000000000e+01 -4.175473163714e+06 9.856128273314e-01 8.169179945720e+01 0.000000000000e+00 9.783435348407e-03 -3.604362805009e+06 -7.452392375038e+05 -4.797699672405e+06 -2.889720671351e+06 -6.020475165922e-05 -1.582347347445e-04 -2.197661301277e-03 0.000000000000e+00 3.763927716255e+06 2.110383762901e+06  2.185439280377e-03
3.800000000000e+01 2.110414859798e+06 1.000000000000e+00 8.151822908273e+01 0.000000000000e+00 9.884414383259e-03 -3.524577390595e+06 -7.457273185654e+05 -3.490154850082e+06 -2.367707237519e+06 -3.060639664121e-05 7.412523468936e-05 6.897356755548e-04 0.000000000000e+00 3.127479826065e+06 1.722799684706e+06  7.171234402565e-04
3.900000000000e+01 2.140131956349e+06 1.000000000000e+00 8.133943750598e+01 0.000000000000e+00 9.962890843680e-03 -3.541879928843e+06 -7.456402133041e+05 -3.500185618624e+06 -2.375579810619e+06 -3.086220607738e-05 7.451906144611e-05 6.919601071930e-04 0.000000000000e+00 3.139215119362e+06 1.726645384966e+06  7.195665033146e-04
4.000000000000e+01 2.169517864080e+06 1.000000000000e+00 8.114970895312e+01 0.000000000000e+00 1.003782238747e-02 -3.558802700374e+06 -7.455542941431e+05 -3.510110295234e+06 -2.383295701048e+06 -3.110787098517e-05 7.489252348626e-05 6.940611130211e-04 0.000000000000e+00 3.150736232219e+06 1.730463235458e+06  7.218766944759e-04
4.200000000000e+01 2.226800933249e+06 1.000000000000e+00 8.087470248750e+01 0.000000000000e+00 1.017811684388e-02 -3.592271413868e+06 -7.453882350507e+05 -3.530208392210e+06 -2.398831985519e+06 -3.156967025945e-05 7.561546529000e-05 6.982993474177e-04 0.000000000000e+00 3.173770597199e+06 1.738071314291e+06  7.265100127305e-04
4.400000000000e+01 2.282566755688e+06 1.000000000000e+00 8.057951688313e+01 0.000000000000e+00 1.030888971304e-02 -3.624485169044e+06 -7.452263790527e+05 -3.549769045160e+06 -2.413813390496e+06 -3.200443349784e-05 7.628693509242e-05 7.022273388329e-04 0.000000000000e+00 3.196022534900e+06 1.745548343662e+06  7.308084542007e-04
5.000000000000e+01 2.434088948783e+06 1.000000000000e+00 7.938520178338e+01 0.000000000000e+00 1.058244980810e-02 -3.707816408037e+06 -7.447702021086e+05 -3.603880172977e+06 -2.453128905012e+06 -3.299793704975e-05 7.760892480076e-05 7.093919530509e-04 0.000000000000e+00 3.254941828675e+06 1.765979597224e+06  7.387852959686e-04
6.500000000000e+01 2.765473785960e+06 1.000000000000e+00 7.672301842635e+01 0.000000000000e+00 1.104654340424e-02 -3.883123753647e+06 -7.437849935492e+05 -3.724002786732e+06 -2.537544998947e+06 -3.474541223235e-05 7.991646825613e-05 7.231973604217e-04 0.000000000000e+00 3.381557179775e+06 1.811474599488e+06  7.539956113274e-04
8.000000000000e+01 3.020527303102e+06 1.000000000000e+00 7.427670767214e+01 0.000000000000e+00 1.126667241855e-02 -4.012192059527e+06 -7.430103633727e+05 -3.819050006894e+06 -2.601150337172e+06 -3.575777529590e-05 8.093440620667e-05 7.290794115133e-04 0.000000000000e+00 3.477464134531e+06 1.847161146287e+06  7.606292124817e-04
1.000000000000e+02 3.321207026676e+06 1.000000000000e+00 7.180591457474e+01 0.000000000000e+00 1.145087646549e-02 -4.166016709983e+06 -7.420974158446e+05 -3.937257745530e+06 -2.679102094237e+06 -3.675762904797e-05 8.180904124247e-05 7.346300801849e-04 0.000000000000e+00 3.594125516583e+06 1.890826912866e+06  7.668858426570e-04
1.860000000000e+02 3.919688121244e+06 1.000000000000e+00 6.658240888385e+01 0.000000000000e+00 1.166960576115e-02 -4.462222331090e+06 -7.402967837046e+05 -4.170935176978e+06 -2.830390906681e+06 -3.831950010793e-05 8.301396286904e-05 7.442935963993e-04 0.000000000000e+00 3.821182804917e+06 1.979017042909e+06  7.775835996024e-04
2.720000000000e+02 4.210009356002e+06 1.000000000000e+00 6.332485866043e+01 0.000000000000e+00 1.150120331277e-02 -4.597682143365e+06 -7.393694100468e+05 -4.293716743839e+06 -2.903556998513e+06 -3.844393196410e-05 8.189490965843e-05 7.371924379923e-04 0.000000000000e+00 3.931651961906e+06 2.021756888838e+06  7.703191099489e-04
3.580000000000e+02 4.351374974385e+06 1.000000000000e+00 6.119559827947e+01 0.000000000000e+00 1.132515390851e-02 -4.656337029001e+06 -7.389092512939e+05 -4.352429285277e+06 -2.936025769942e+06 -3.824515836459e-05 8.080561850313e-05 7.304791810987e-04 0.000000000000e+00 3.981597361406e+06 2.041317093555e+06  7.632748273493e-04
4.440000000000e+02 4.423503819664e+06 1.000000000000e+00 5.963781864608e+01 0.000000000000e+00 1.116047758361e-02 -4.680598217365e+06 -7.386640948179e+05 -4.381770989966e+06 -2.950157185151e+06 -3.794413438871e-05 7.978394329607e-05 7.240379293786e-04 0.000000000000e+00 4.004175464161e+06 2.050242648296e+06  7.564655351249e-04
5.300000000000e+02 4.462468307096e+06 1.000000000000e+00 5.847337984831e+01 0.000000000000e+00 1.101782887258e-02 -4.689826347757e+06 -7.385231349578e+05 -4.397392184389e+06 -2.956186508051e+06 -3.763887270351e-05 7.889475316988e-05 7.183595292966e-04 0.000000000000e+00 4.014468346732e+06 2.054336530420e+06  7.504455257921e-04
6.160000000000e+02 4.484983766297e+06 1.000000000000e+00 5.760621845411e+01 0.000000000000e+00 1.089952215781e-02 -4.692817752979e+06 -7.384363173878e+05 -4.406416132792e+06 -2.958746787339e+06 -3.737070046356e-05 7.816313088616e-05 7.136592298084e-04 0.000000000000e+00 4.019326891037e+06 2.056271346967e+06  7.454558578104e-04
7.020000000000e+02 4.498794050609e+06 1.000000000000e+00 5.697677868329e+01 0.000000000000e+00 1.080881119019e-02 -4.693487239115e+06 -7.383799513406e+05 -4.412025653355e+06 -2.959881089634e+06 -3.715869771709e-05 7.759892046341e-05 7.100128132949e-04 0.000000000000e+00 4.021797994034e+06 2.057251133791e+06  7.415840429342e-04
7.880000000000e+02 4.508412604012e+06 1.000000000000e+00 5.650302838808e+01 0.000000000000e+00 1.072708089592e-02 -4.693633163904e+06 -7.383370276021e+05 -4.416814826188e+06 -2.960821920056e+06 -3.697029443288e-05 7.708624902217e-05 7.066100342291e-04 0.000000000000e+00 4.023756636716e+06 2.057914956890e+06  7.379803476538e-04
8.740000000000e+02 4.516798674396e+06 1.000000000000e+00 5.570731940232e+01 0.000000000000e+00 1.061153834163e-02 -4.689073503853e+06 -7.382946768716e+05 -4.419292054197e+06 -2.959249238583e+06 -3.667993773983e-05 7.637330087987e-05 7.020197249933e-04 0.000000000000e+00 4.022538265544e+06 2.057580280585e+06  7.330933059161e-04
9.370000000000e+02 4.522172520628e+06 1.000000000000e+00 5.519197977531e+01 0.000000000000e+00 1.051657343097e-02 -4.685924638255e+06 -7.382645716181e+05 -4.421934968720e+06 -2.958510285532e+06 -3.644684629360e-05 7.579818378268e-05 6.983014187328e-04 0.000000000000e+00 4.022123297503e+06 2.057361193522e+06  7.291366281284e-04
1.000000000000e+03 4.526362541987e+06 1.000000000000e+00 5.480045350268e+01 0.000000000000e+00 1.043705205801e-02 -4.683325864310e+06 -7.382415633265e+05 -4.424136226820e+06 -2.957948123149e+06 -3.625057889771e-05 7.533235797345e-05 6.953683470332e-04 0.000000000000e+00 4.021803404759e+06 2.057160519765e+06  7.260052617762e-04
1.100000000000e+03 4.530507848734e+06 1.000000000000e+00 5.441734719903e+01 0.000000000000e+00 1.035387244069e-02 -4.680651312974e+06 -7.382188568073e+05 -4.426477558387e+06 -2.957418730686e+06 -3.604463292859e-05 7.485177794528e-05 6.923781971709e-04 0.000000000000e+00 4.021515867349e+06 2.056948121939e+06  7.228081816291e-04
1.200000000000e+03 4.533769219407e+06 1.000000000000e+00 5.407984969543e+01 0.000000000000e+00 1.028475168032e-02 -4.678192093205e+06 -7.382003580763e+05 -4.428226084885e+06 -2.956824440158e+06 -3.587313205782e-05 7.444691590749e-05 6.898301065949e-04 0.000000000000e+00 4.021080872749e+06 2.056726891734e+06  7.200873932684e-04
1.300000000000e+03 4.536674591374e+06 1.000000000000e+00 5.375346275255e+01 0.000000000000e+00 1.021897423695e-02 -4.675703635941e+06 -7.381827266786e+05 -4.429774888208e+06 -2.956173627576e+06 -3.570949213201e-05 7.405939775404e-05 6.873796036087e-04 0.000000000000e+00 4.020550717242e+06 2.056483345637e+06  7.174721228169e-04
1.400000000000e+03 4.539414104015e+06 1.000000000000e+00 5.342077555943e+01 0.000000000000e+00 1.015095697659e-02 -4.673019778016e+06 -7.381655768094e+05 -4.431238068146e+06 -2.955431310188e+06 -3.554087007437e-05 7.366308019322e-05 6.848819248196e-04 0.000000000000e+00 4.019896385450e+06 2.056198511768e+06  7.148051846813e-04
1.500000000000e+03 4.542053989886e+06 1.000000000000e+00 5.307171702660e+01 0.000000000000e+00 1.007756413167e-02 -4.670025461271e+06 -7.381482927537e+05 -4.432756535893e+06 -2.954596442345e+06 -3.535814221653e-05 7.323553467340e-05 6.821903138977e-04 0.000000000000e+00 4.019126146503e+06 2.055860882532e+06  7.119305691927e-04
1.600000000000e+03 4.544615032333e+06 1.000000000000e+00 5.270014477387e+01 0.000000000000e+00 9.996789309530e-03 -4.666634052634e+06 -7.381304656467e+05 -4.434340427524e+06 -2.953639090033e+06 -3.515679368136e-05 7.276804401122e-05 6.792577824475e-04 0.000000000000e+00 4.018204523397e+06 2.055457130045e+06  7.087970270529e-04
1.700000000000e+03 4.547102318795e+06 1.000000000000e+00 5.230226734688e+01 0.000000000000e+00 9.907398871481e-03 -4.662786582584e+06 -7.381120656392e+05 -4.435999877313e+06 -2.952540457604e+06 -3.493387974096e-05 7.225469929707e-05 6.760509283539e-04 0.000000000000e+00 4.017108972501e+06 2.054979610151e+06  7.053683720038e-04
1.800000000000e+03 4.549515724596e+06 1.000000000000e+00 5.187579639097e+01 0.000000000000e+00 9.808692087971e-03 -4.658450932817e+06 -7.380929681408e+05 -4.437773489421e+06 -2.951300860653e+06 -3.468706522302e-05 7.168928021300e-05 6.725267138130e-04 0.000000000000e+00 4.015841760964e+06 2.054427919970e+06  7.015991804190e-04
1.900000000000e+03 4.551855014388e+06 1.000000000000e+00 5.141944506533e+01 0.000000000000e+00 9.700197655755e-03 -4.653601024269e+06 -7.380737138031e+05 -4.439622770006e+06 -2.949898498043e+06 -3.441602477893e-05 7.107290480264e-05 6.687006722288e-04 0.000000000000e+00 4.014374097439e+06 2.053799435155e+06  6.975049419877e-04