 TITLE = "Time curves in points"
 VARIABLES = "TIME"  "PRESSURE1"  "SATURATION1"  "TEMPERATURE1"  "DISPLACEMENT_X1"  "DISPLACEMENT_Y1"  "STRESS_XX"  "STRESS_XY"  "STRESS_YY"  "STRESS_ZZ"  "STRAIN_XX"  "STRAIN_XY"  "STRAIN_YY"  "STRAIN_PLS"  p_(1st_Invariant)  q_(2nd_Invariant)   Effective_Strain
 ZONE T="POINT=POINT8"
0.000000000000e+00 1.000000000000e+05 1.000000000000e+00 2.500000000000e+01 0.000000000000e+00 0.000000000000e+00 -1.862400571852e+07 -6.140100975330e+03 -1.726483383688e+07 -7.763601866620e+06 0.000000000000e+00 0.000000000000e+00 0.000000000000e+00 0.000000000000e+00 1.455081380734e+07 1.024864271960e+07  0.000000000000e+00
1.000000000000e-03 1.897522717761e+05 1.000000000000e+00 2.500000156039e+01 -8.136339360333e-04 6.276106152710e-05 -8.556070525990e+06 -4.871810018184e+03 -2.678600184720e+07 -7.599572542890e+06 3.678593608412e-04 9.421589967369e-08 -3.597359009790e-04 0.000000000000e+00 1.431388163869e+07 1.872651190457e+07  6.301290923671e-04
2.000000000000e-03 2.084776629826e+05 1.000000000000e+00 2.500001709812e+01 -8.130557956278e-04 6.217508084117e-05 -8.552673059608e+06 -5.122956354123e+03 -2.677530320046e+07 -7.595351332474e+06 3.678287646343e-04 7.555931471826e-08 -3.594953104872e-04 0.000000000000e+00 1.430777586418e+07 1.871966112495e+07  6.298949209437e-04
3.000000000000e-03 2.212085614221e+05 1.000000000000e+00 2.500009418561e+01 -8.124814388512e-04 6.169584085797e-05 -8.552843786319e+06 -5.225712854782e+03 -2.676643523835e+07 -7.592777658885e+06 3.677268297660e-04 6.792597466931e-08 -3.592615226275e-04 0.000000000000e+00 1.430401889452e+07 1.871210770294e+07  6.296046200473e-04
4.000000000000e-03 2.298787049149e+05 1.000000000000e+00 2.500035065107e+01 -8.118695871820e-04 6.118376782867e-05 -8.556083056521e+06 -5.271477740740e+03 -2.675882848653e+07 -7.591579765507e+06 3.675620208330e-04 6.452629742672e-08 -3.590234793140e-04 0.000000000000e+00 1.430216376952e+07 1.870366004359e+07  6.292559939577e-04
1.000000000000e-02 2.421006615923e+05 1.000000000000e+00 2.505907518550e+01 -8.053838236579e-04 5.838799589744e-05 -8.634524081372e+06 -5.324215176920e+03 -2.672331971713e+07 -7.626278320597e+06 3.659373005276e-04 6.060865931052e-08 -3.564157786902e-04 0.000000000000e+00 1.432804070637e+07 1.861341246589e+07  6.255942408274e-04
2.000000000000e-02 2.386347066029e+05 1.000000000000e+00 2.535259014302e+01 -7.902710233925e-04 5.657166530846e-05 -8.828332331281e+06 -5.361372514857e+03 -2.671059555828e+07 -7.786924794878e+06 3.647055774328e-04 5.784839992087e-08 -3.499762980310e-04 0.000000000000e+00 1.444195089481e+07 1.842505570418e+07  6.189764820206e-04
3.000000000000e-02 2.278107427145e+05 1.000000000000e+00 2.578376508954e+01 -7.737758504360e-04 5.692506351942e-05 -9.040688951479e+06 -5.382966278450e+03 -2.674517342654e+07 -8.015633183743e+06 3.653129288405e-04 5.624429176826e-08 -3.427657358371e-04 0.000000000000e+00 1.460049852059e+07 1.823863154706e+07  6.133177398356e-04
4.000000000000e-02 2.141165156362e+05 1.000000000000e+00 2.628824619703e+01 -7.574088303391e-04 5.961028027808e-05 -9.250767780139e+06 -5.402778565689e+03 -2.681061128616e+07 -8.278149507678e+06 3.672606072364e-04 5.477252185907e-08 -3.354456785914e-04 0.000000000000e+00 1.477984285799e+07 1.806580201612e+07  6.087693730204e-04
5.000000000000e-02 1.996474207328e+05 1.000000000000e+00 2.682043313894e+01 -7.418462746401e-04 6.329466435299e-05 -9.451115913264e+06 -5.415814391031e+03 -2.689598827495e+07 -8.552882410317e+06 3.700234701041e-04 5.380414626229e-08 -3.284124589338e-04 0.000000000000e+00 1.496666219951e+07 1.791089199186e+07  6.052209827621e-04
6.000000000000e-02 1.850178762028e+05 1.000000000000e+00 2.735294972436e+01 -7.273654794441e-04 6.929660491726e-05 -9.636107187397e+06 -5.430148009108e+03 -2.698623395216e+07 -8.824083600833e+06 3.732255527126e-04 5.273936320513e-08 -3.216912541539e-04 0.000000000000e+00 1.514880824680e+07 1.777006138652e+07  6.023669817275e-04
7.000000000000e-02 1.710965369090e+05 1.000000000000e+00 2.787092055562e+01 -7.140042169713e-04 7.531247971326e-05 -9.808089722705e+06 -5.438184595699e+03 -2.708193408811e+07 -9.087511319357e+06 3.766220880892e-04 5.214235962973e-08 -3.154613725157e-04 0.000000000000e+00 1.532584504339e+07 1.764517441993e+07  6.001414864605e-04
8.000000000000e-02 1.585317080078e+05 1.000000000000e+00 2.836706684756e+01 -7.016752389797e-04 8.211376508483e-05 -9.966981778766e+06 -5.445892237218e+03 -2.717602737620e+07 -9.338558576241e+06 3.800449955483e-04 5.156979197411e-08 -3.096316536748e-04 0.000000000000e+00 1.549385591040e+07 1.753170894739e+07  5.983142385231e-04
9.000000000000e-02 1.482212571501e+05 1.000000000000e+00 2.883845395687e+01 -6.902410835261e-04 8.830205618578e-05 -1.011624403560e+07 -5.457216608385e+03 -2.727016155362e+07 -9.577800875052e+06 3.833871113931e-04 5.072855297311e-08 -3.042419234516e-04 0.000000000000e+00 1.565473548809e+07 1.742938054436e+07  5.968176145899e-04
1.000000000000e-01 1.411729948651e+05 1.000000000000e+00 2.928453711827e+01 -6.796269610815e-04 9.384108953361e-05 -1.025674400967e+07 -5.463790580029e+03 -2.736329001244e+07 -9.805049364766e+06 3.866091991173e-04 5.024020079384e-08 -2.992603223040e-04 0.000000000000e+00 1.580836112896e+07 1.733680965398e+07  5.955839272961e-04
2.000000000000e-01 1.605357332527e+05 1.000000000000e+00 3.224683973845e+01 -6.143798199961e-04 1.886691691962e-04 -1.111994845602e+07 -5.503517371055e+03 -2.788286274195e+07 -1.126073954748e+07 4.086158121819e-04 4.728906774619e-08 -2.644902454708e-04 0.000000000000e+00 1.675451691515e+07 1.669296676318e+07  5.873643461178e-04
3.000000000000e-01 1.893480133798e+05 1.000000000000e+00 3.435784811180e+01 -5.677212007258e-04 2.983393922377e-04 -1.174446502195e+07 -5.522057512557e+03 -2.814275606002e+07 -1.226678684734e+07 4.227869537280e-04 4.591180009178e-08 -2.367759547185e-04 0.000000000000e+00 1.738466930977e+07 1.614347159782e+07  5.787205300580e-04
4.000000000000e-01 2.186881283123e+05 1.000000000000e+00 3.595754807863e+01 -5.327414904353e-04 4.037669829798e-04 -1.223421091388e+07 -5.527121865516e+03 -2.829212076131e+07 -1.301939886683e+07 4.325505527517e-04 4.553559101478e-08 -2.143696257571e-04 0.000000000000e+00 1.784857684734e+07 1.568007025097e+07  5.707714283913e-04
5.000000000000e-01 2.465451225585e+05 1.000000000000e+00 3.722859804103e+01 -5.050972330528e-04 5.061883040906e-04 -1.264030259094e+07 -5.528104071765e+03 -2.836922819878e+07 -1.360979551206e+07 4.393961658552e-04 4.546262712205e-08 -1.953045980398e-04 0.000000000000e+00 1.820644210059e+07 1.526728616838e+07  5.630532606574e-04
6.000000000000e-01 2.724288429925e+05 1.000000000000e+00 3.827469337271e+01 -4.826438350915e-04 6.060506786693e-04 -1.298730396842e+07 -5.527908854746e+03 -2.839991011548e+07 -1.408958420015e+07 4.443282659635e-04 4.547712895774e-08 -1.786234893884e-04 0.000000000000e+00 1.849226609468e+07 1.489209624437e+07  5.556090625612e-04
7.000000000000e-01 2.964488901559e+05 1.000000000000e+00 3.915925629597e+01 -4.641440319528e-04 7.035407381501e-04 -1.328997985561e+07 -5.527397634042e+03 -2.840059265947e+07 -1.449041426919e+07 4.479739927177e-04 4.551510535287e-08 -1.637608670296e-04 0.000000000000e+00 1.872699559476e+07 1.454759272615e+07  5.485060942148e-04
8.000000000000e-01 3.188675964861e+05 1.000000000000e+00 3.992287772999e+01 -4.491502199156e-04 7.988229931294e-04 -1.355315289706e+07 -5.531533774870e+03 -2.838585880935e+07 -1.483236142936e+07 4.508998885562e-04 4.520784917711e-08 -1.505127152184e-04 0.000000000000e+00 1.892379104526e+07 1.423627433646e+07  5.420617673217e-04
9.000000000000e-01 3.397329295621e+05 1.000000000000e+00 4.059286263957e+01 -4.365183295374e-04 8.918635200325e-04 -1.379098922585e+07 -5.539360334162e+03 -2.835679033734e+07 -1.512958273984e+07 4.531056164475e-04 4.462644762968e-08 -1.383933804405e-04 0.000000000000e+00 1.909245410101e+07 1.394477679186e+07  5.358770860349e-04
1.000000000000e+00 3.592039736113e+05 1.000000000000e+00 4.118842430356e+01 -4.258812161865e-04 9.827198023962e-04 -1.400702664951e+07 -5.549773888619e+03 -2.831755060341e+07 -1.539112870245e+07 4.547959336084e-04 4.385286929857e-08 -1.272213402831e-04 0.000000000000e+00 1.923856865179e+07 1.367112654995e+07  5.299852494630e-04
2.000000000000e+00 4.897321527216e+05 1.000000000000e+00 4.453203944785e+01 -3.844839562527e-04 1.735941920213e-03 -1.543085816287e+07 -5.627095561518e+03 -2.767572257670e+07 -1.679567723557e+07 4.540797086281e-04 3.810897359749e-08 -5.121306806091e-05 0.000000000000e+00 1.996741932505e+07 1.162271509210e+07  4.817322695314e-04
3.000000000000e+00 5.912382562304e+05 1.000000000000e+00 4.675895153852e+01 -3.667828339200e-04 2.378633514496e-03 -1.651855330477e+07 -5.554441921316e+03 -2.698989199364e+07 -1.769503852878e+07 4.470844513911e-04 4.350610115540e-08 7.665487343413e-06 0.000000000000e+00 2.040116127573e+07 9.935480296983e+06  4.433014232401e-04
4.000000000000e+00 6.763577757203e+05 1.000000000000e+00 4.842798920973e+01 -3.586584884108e-04 2.938977055101e-03 -1.740963579022e+07 -5.440750318434e+03 -2.633713886969e+07 -1.835000516698e+07 4.383144342076e-04 5.195176308377e-08 5.623793565171e-05 0.000000000000e+00 2.069892660896e+07 8.496443026182e+06  4.130766972268e-04
5.000000000000e+00 7.513260083975e+05 1.000000000000e+00 4.978690723097e+01 -3.545706746266e-04 3.436309043083e-03 -1.816896209945e+07 -5.296366210870e+03 -2.574217558827e+07 -1.887426704143e+07 4.295834694872e-04 6.267743964566e-08 9.780915572698e-05 0.000000000000e+00 2.092846824305e+07 7.246356109287e+06  3.899889787177e-04
6.000000000000e+00 8.193735464718e+05 1.000000000000e+00 5.096945350104e+01 -3.512903548887e-04 3.885061762673e-03 -1.884566790853e+07 -5.168816389454e+03 -2.520189820120e+07 -1.932851134130e+07 4.213206134306e-04 7.215256923655e-08 1.347485326702e-04 0.000000000000e+00 2.112535915034e+07 6.129095970051e+06  3.726874126300e-04
7.000000000000e+00 8.826026428426e+05 1.000000000000e+00 5.197950929299e+01 -3.498043194114e-04 4.292289193589e-03 -1.943504214624e+07 -5.063513585220e+03 -2.470885915559e+07 -1.971032457102e+07 4.136112045623e-04 7.997506326539e-08 1.672430457539e-04 0.000000000000e+00 2.128474195762e+07 5.141713142996e+06  3.603760348186e-04
8.000000000000e+00 9.416824930649e+05 1.000000000000e+00 5.292391709775e+01 -3.480404931485e-04 4.667717692949e-03 -1.997607452733e+07 -4.993039089792e+03 -2.426742343663e+07 -2.007028591041e+07 4.068857087281e-04 8.521031149715e-08 1.970092222071e-04 0.000000000000e+00 2.143792795812e+07 4.245036174331e+06  3.524321188265e-04
9.000000000000e+00 9.976435741624e+05 1.000000000000e+00 5.378589289936e+01 -3.464658661753e-04 5.015838339584e-03 -2.047121519494e+07 -4.926285535409e+03 -2.386135142217e+07 -2.039826047732e+07 4.006766821303e-04 9.016914696566e-08 2.242738095149e-04 0.000000000000e+00 2.157694236481e+07 3.427206627276e+06  3.478207638189e-04
1.000000000000e+01 1.050982173787e+06 1.000000000000e+00 5.457088149438e+01 -3.449508011140e-04 5.340013161529e-03 -2.092825855541e+07 -4.868751558274e+03 -2.348117446879e+07 -2.069564106812e+07 3.947463506858e-04 9.444309955280e-08 2.494402325849e-04 0.000000000000e+00 2.170169136411e+07 2.676829198028e+06  3.458027128916e-04
1.100000000000e+01 1.101991877934e+06 1.000000000000e+00 5.530377078103e+01 -3.437247642665e-04 5.643853367300e-03 -2.134988402786e+07 -4.862553351842e+03 -2.313115351712e+07 -2.097325278080e+07 3.893972681799e-04 9.490353774492e-08 2.727523029746e-04 0.000000000000e+00 2.181809677526e+07 1.996428003213e+06  3.461431446611e-04
1.200000000000e+01 1.151061754557e+06 1.000000000000e+00 5.597878233362e+01 -3.428860729541e-04 5.929338398298e-03 -2.173894849246e+07 -4.835805550341e+03 -2.280400552933e+07 -2.122770585080e+07 3.843974163803e-04 9.689051728496e-08 2.943546279783e-04 0.000000000000e+00 2.192355329086e+07 1.392942302659e+06  3.482196008282e-04
1.300000000000e+01 1.198447624793e+06 1.000000000000e+00 5.659858998960e+01 -3.423849617969e-04 6.198057795154e-03 -2.209853122614e+07 -4.814937360463e+03 -2.249464963703e+07 -2.145933201169e+07 3.796447436769e-04 9.844072567593e-08 3.144482470968e-04 0.000000000000e+00 2.201750429162e+07 9.048500202464e+05  3.516094941932e-04
1.400000000000e+01 1.244863112921e+06 1.000000000000e+00 5.716722732075e+01 -3.422832954918e-04 6.451553532216e-03 -2.242986598330e+07 -4.806737193580e+03 -2.220128676497e+07 -2.166937276110e+07 3.751395376745e-04 9.904988093008e-08 3.331460958946e-04 0.000000000000e+00 2.210017516979e+07 6.758955303585e+05  3.560052681873e-04
1.500000000000e+01 1.289856491522e+06 1.000000000000e+00 5.768857815850e+01 -3.425345358632e-04 6.690758644916e-03 -2.273592895997e+07 -4.807698474938e+03 -2.192341308109e+07 -2.185992885668e+07 3.708492820911e-04 9.897847145775e-08 3.505449162741e-04 0.000000000000e+00 2.217309029925e+07 8.460872191874e+05  3.611255006260e-04
1.600000000000e+01 1.333567859371e+06 1.000000000000e+00 5.816618214756e+01 -3.429585366436e-04 6.916685833376e-03 -2.302047772639e+07 -4.809106314824e+03 -2.165777288649e+07 -2.203238968775e+07 3.666860159209e-04 9.887388906625e-08 3.668172400849e-04 0.000000000000e+00 2.223688010021e+07 1.219376677987e+06  3.667516855936e-04
1.700000000000e+01 1.376130706230e+06 1.000000000000e+00 5.860314890115e+01 -3.433348760141e-04 7.130223581293e-03 -2.328771471800e+07 -4.815197591786e+03 -2.140106016408e+07 -2.218811249111e+07 3.625440603577e-04 9.842139420621e-08 3.821362738991e-04 0.000000000000e+00 2.229229579106e+07 1.641368475605e+06  3.727266025402e-04
1.800000000000e+01 1.417676339735e+06 1.000000000000e+00 5.900220600745e+01 -3.436386292818e-04 7.332158637576e-03 -2.353907180336e+07 -4.825227752255e+03 -2.115214382847e+07 -2.232814211596e+07 3.584090403958e-04 9.767629657133e-08 3.965828381449e-04 0.000000000000e+00 2.233978591593e+07 2.067230941897e+06  3.789408158454e-04
1.900000000000e+01 1.458294274534e+06 1.000000000000e+00 5.936575296315e+01 -3.438577934486e-04 7.523184412500e-03 -2.377576561154e+07 -4.841491254112e+03 -2.091035139322e+07 -2.245348158436e+07 3.542730220610e-04 9.646815071911e-08 4.102191659946e-04 0.000000000000e+00 2.237986619638e+07 2.483991255833e+06  3.853045322645e-04
2.000000000000e+01 1.498068173235e+06 1.000000000000e+00 5.969590837865e+01 -3.443543184940e-04 7.703916603124e-03 -2.399432361467e+07 -4.888019830068e+03 -2.067963430214e+07 -2.256501604593e+07 3.502978619460e-04 9.301174221953e-08 4.229313665215e-04 0.000000000000e+00 2.241299132091e+07 2.879660834269e+06  3.916983601994e-04
2.100000000000e+01 1.536922655110e+06 1.000000000000e+00 6.002605770102e+01 -3.444461997247e-04 7.876634008937e-03 -2.420568913411e+07 -4.910246400639e+03 -2.046280898586e+07 -2.267862370660e+07 3.466668557632e-04 9.136062554858e-08 4.352045913801e-04 0.000000000000e+00 2.244904060886e+07 3.259682512445e+06  3.983841901681e-04
2.200000000000e+01 1.575008565590e+06 1.000000000000e+00 6.033894175707e+01 -3.443741230551e-04 8.041737860732e-03 -2.440801156851e+07 -4.937435779279e+03 -2.025305613594e+07 -2.278560349810e+07 3.431255575983e-04 8.934084313533e-08 4.469689466328e-04 0.000000000000e+00 2.248222373418e+07 3.626968776047e+06  4.051542205556e-04
2.300000000000e+01 1.612395315985e+06 1.000000000000e+00 6.063086839057e+01 -3.446102295169e-04 8.199514046148e-03 -2.459611168179e+07 -4.975521217273e+03 -2.005328949888e+07 -2.288397843501e+07 3.397929081903e-04 8.651163917000e-08 4.580427765229e-04 0.000000000000e+00 2.251112653856e+07 3.973762828117e+06  4.118528146362e-04
2.400000000000e+01 1.649130904615e+06 1.000000000000e+00 6.090135599604e+01 -3.449717033370e-04 8.350227592497e-03 -2.477261003381e+07 -5.007811222290e+03 -1.986014952764e+07 -2.297335753575e+07 3.365570502857e-04 8.411295308305e-08 4.685363420539e-04 0.000000000000e+00 2.253537236573e+07 4.304752742455e+06  4.184587959572e-04
2.500000000000e+01 1.685264960480e+06 1.000000000000e+00 6.115076195078e+01 -3.454077989323e-04 8.494138111333e-03 -2.493860941008e+07 -5.034943926977e+03 -1.967273563513e+07 -2.305392635620e+07 3.333839153550e-04 8.209738073488e-08 4.784899856778e-04 0.000000000000e+00 2.255509046714e+07 4.621366660605e+06  4.249431217797e-04
2.600000000000e+01 1.720836896489e+06 1.000000000000e+00 6.137969445658e+01 -3.458300396428e-04 8.631490871309e-03 -2.509565642217e+07 -5.062425499239e+03 -1.948990520535e+07 -2.312601890065e+07 3.302284637003e-04 8.005589250971e-08 4.879585532922e-04 0.000000000000e+00 2.257052684272e+07 4.925717980407e+06  4.312964221885e-04
2.700000000000e+01 1.755874939497e+06 1.000000000000e+00 6.158883268474e+01 -3.462190942547e-04 8.762524672268e-03 -2.524430748638e+07 -5.088516535481e+03 -1.931118660132e+07 -2.318989829235e+07 3.270798015782e-04 7.811770124603e-08 4.969693359908e-04 0.000000000000e+00 2.258179746002e+07 5.218576449254e+06  4.375055474121e-04
2.800000000000e+01 1.790419247645e+06 1.000000000000e+00 6.177885731533e+01 -3.465281978029e-04 8.887457520567e-03 -2.538543705373e+07 -5.121399086432e+03 -1.913580835103e+07 -2.324583365191e+07 3.239154452887e-04 7.567499746109e-08 5.055609843565e-04 0.000000000000e+00 2.258902635222e+07 5.501282895153e+06  4.435697582250e-04
2.900000000000e+01 1.824495782704e+06 1.000000000000e+00 6.195042623709e+01 -3.467342814328e-04 9.006496578336e-03 -2.551970040630e+07 -5.153134299274e+03 -1.896346781736e+07 -2.329416102634e+07 3.207235375292e-04 7.331752450706e-08 5.137572209432e-04 0.000000000000e+00 2.259244308333e+07 5.774611428104e+06  4.494842070538e-04
3.000000000000e+01 1.858113507978e+06 1.000000000000e+00 6.210416621836e+01 -3.468502466255e-04 9.119845262044e-03 -2.564710526137e+07 -5.183996092113e+03 -1.879399245464e+07 -2.333505033254e+07 3.175101028571e-04 7.102493418191e-08 5.215707657887e-04 0.000000000000e+00 2.259204934952e+07 6.038713481735e+06  4.552414269182e-04
3.100000000000e+01 1.891191767237e+06 1.000000000000e+00 6.226561076274e+01 -3.464567763716e-04 9.229051708270e-03 -2.577466465784e+07 -5.215743009326e+03 -1.863173485896e+07 -2.338089977853e+07 3.144751618392e-04 6.866659176038e-08 5.293004559079e-04 0.000000000000e+00 2.259576643178e+07 6.297074204195e+06  4.610875921669e-04
3.200000000000e+01 1.923808298853e+06 1.000000000000e+00 6.242032661871e+01 -3.458017810145e-04 9.334225176302e-03 -2.589976047889e+07 -5.250530336552e+03 -1.847198268140e+07 -2.342441159536e+07 3.114448988252e-04 6.608239030933e-08 5.368502614137e-04 0.000000000000e+00 2.259871825188e+07 6.550799671045e+06  4.669120537474e-04
3.300000000000e+01 1.955989885121e+06 1.000000000000e+00 6.256470728630e+01 -3.449515722494e-04 9.435421336667e-03 -2.602180067484e+07 -5.285362096930e+03 -1.831352639360e+07 -2.346377899483e+07 3.083741949560e-04 6.349488810981e-08 5.441979983696e-04 0.000000000000e+00 2.259970202109e+07 6.800229289411e+06  4.726832956591e-04
3.400000000000e+01 1.987762148597e+06 1.000000000000e+00 6.269777352639e+01 -3.439440213311e-04 9.532669799152e-03 -2.614047213004e+07 -5.323057344137e+03 -1.815630127832e+07 -2.349854531982e+07 3.052577186912e-04 6.069466974584e-08 5.513291090082e-04 0.000000000000e+00 2.259843957606e+07 7.045087042350e+06  4.783812352590e-04
3.500000000000e+01 2.019161501922e+06 1.000000000000e+00 6.281929075483e+01 -3.426096687127e-04 9.626030027434e-03 -2.625797711103e+07 -5.355117910894e+03 -1.799808968078e+07 -2.352862371087e+07 3.020104453505e-04 5.831302764389e-08 5.583227371555e-04 0.000000000000e+00 2.259489683423e+07 7.289104508268e+06  4.840612560712e-04
3.600000000000e+01 2.050226599021e+06 1.000000000000e+00 6.292928741265e+01 -3.407458321435e-04 9.715555318884e-03 -2.637690857035e+07 -5.387477765537e+03 -1.783640360415e+07 -2.355405556646e+07 2.985376029260e-04 5.590915272755e-08 5.652728317811e-04 0.000000000000e+00 2.258912258032e+07 7.536592143371e+06  4.897988238951e-04
3.700000000000e+01 2.081029642262e+06 1.000000000000e+00 6.302790544575e+01 -3.376166293355e-04 9.801308375269e-03 -2.650656941588e+07 -5.349530261075e+03 -1.766264877839e+07 -2.357510315769e+07 2.945033963377e-04 5.872811020188e-08 5.725083501264e-04 0.000000000000e+00 2.258144045065e+07 7.802746797039e+06  4.958754059458e-04
3.800000000000e+01 2.113459427500e+06 1.000000000000e+00 6.311560345706e+01 -3.091151781684e-04 9.883412163745e-03 -2.694683777897e+07 -5.746882979956e+03 -1.719360787634e+07 -2.359692564718e+07 2.789611210328e-04 2.921047965641e-08 5.907404189550e-04 0.000000000000e+00 2.257912376749e+07 8.583416611657e+06  5.118592996945e-04
3.900000000000e+01 2.143157947788e+06 1.000000000000e+00 6.319190560212e+01 -3.150460230907e-04 9.961885881790e-03 -2.695375296006e+07 -5.746701221843e+03 -1.713111853379e+07 -2.360671831899e+07 2.790679992595e-04 2.922398168769e-08 5.934251794883e-04 0.000000000000e+00 2.256386327094e+07 8.649288372059e+06  5.142240920781e-04
4.000000000000e+01 2.172544101843e+06 1.000000000000e+00 6.325727241493e+01 -3.207886773804e-04 1.003682896223e-02 -2.695816047850e+07 -5.745328351893e+03 -1.706875248195e+07 -2.361196828361e+07 2.790992901175e-04 2.932596631251e-08 5.959366315284e-04 0.000000000000e+00 2.254629374802e+07 8.712383824401e+06  5.164410850300e-04
4.200000000000e+01 2.229827605392e+06 1.000000000000e+00 6.339750408755e+01 -3.309948376943e-04 1.017717483787e-02 -2.696932921695e+07 -5.745825712601e+03 -1.695438645847e+07 -2.362969484117e+07 2.793428662559e-04 2.928901951710e-08 6.008429273955e-04 0.000000000000e+00 2.251780350553e+07 8.832105533529e+06  5.207720013543e-04
4.400000000000e+01 2.285593809494e+06 1.000000000000e+00 6.351592231277e+01 -3.405882380760e-04 1.030801374532e-02 -2.697530594631e+07 -5.744928369564e+03 -1.684228442248e+07 -2.363891292189e+07 2.794632593064e-04 2.935567928558e-08 6.053491031589e-04 0.000000000000e+00 2.248550109689e+07 8.944383729466e+06  5.247612973493e-04
5.000000000000e+01 2.437116678573e+06 1.000000000000e+00 6.356188687947e+01 -3.637643809628e-04 1.058171326717e-02 -2.693438602597e+07 -5.743318309801e+03 -1.654180370610e+07 -2.355140913593e+07 2.777330014407e-04 2.947528372513e-08 6.132596748604e-04 0.000000000000e+00 2.234253295600e+07 9.181096506133e+06  5.318840111753e-04
6.500000000000e+01 2.768502507756e+06 1.000000000000e+00 6.327348446605e+01 -4.018728118310e-04 1.104605189731e-02 -2.671807218354e+07 -5.741064295347e+03 -1.583724661840e+07 -2.317196602320e+07 2.716739142581e-04 2.964272479881e-08 6.253353367881e-04 0.000000000000e+00 2.190909494171e+07 9.611595611179e+06  5.431056095191e-04
8.000000000000e+01 3.023556374630e+06 1.000000000000e+00 6.265175332944e+01 -4.241521478379e-04 1.126641831057e-02 -2.646241667709e+07 -5.740337164013e+03 -1.530601457782e+07 -2.271657116708e+07 2.642550241274e-04 2.969674026934e-08 6.281521464963e-04 0.000000000000e+00 2.149500080733e+07 9.833951724940e+06  5.462723486889e-04
1.000000000000e+02 3.324236305531e+06 1.000000000000e+00 6.190838398991e+01 -4.425603986884e-04 1.145090347346e-02 -2.616385358950e+07 -5.738135582447e+03 -1.475175105996e+07 -2.219891509361e+07 2.561172846518e-04 2.986028632853e-08 6.295118515736e-04 0.000000000000e+00 2.103817324769e+07 1.003536922894e+07  5.483177649527e-04
1.860000000000e+02 3.922717201764e+06 1.000000000000e+00 5.994737820886e+01 -4.674934513449e-04 1.167023095593e-02 -2.540526983784e+07 -5.736239994150e+03 -1.354384704087e+07 -2.091954333722e+07 2.367737301907e-04 3.000110145914e-08 6.268573356167e-04 0.000000000000e+00 1.995622007198e+07 1.037343208127e+07  5.482595841148e-04
2.720000000000e+02 4.213038211969e+06 1.000000000000e+00 5.827403622325e+01 -4.668884511292e-04 1.150214105139e-02 -2.491451105942e+07 -5.735186714523e+03 -1.307396128508e+07 -2.004418810890e+07 2.224887191940e-04 3.007934508857e-08 6.117970409226e-04 0.000000000000e+00 1.934422015113e+07 1.030783497954e+07  5.363570752055e-04
3.580000000000e+02 4.354403691727e+06 1.000000000000e+00 5.705907387329e+01 -4.621480520067e-04 1.132624810501e-02 -2.457130505013e+07 -5.734581621989e+03 -1.279871619574e+07 -1.943255552354e+07 2.125185892260e-04 3.012429481971e-08 5.993026482137e-04 0.000000000000e+00 1.893419225647e+07 1.022273487310e+07  5.262745142293e-04
4.440000000000e+02 4.426532453840e+06 1.000000000000e+00 5.611648095824e+01 -4.567467667035e-04 1.116165885465e-02 -2.431765982279e+07 -5.733624867990e+03 -1.263008892218e+07 -1.897538750197e+07 2.049591711547e-04 3.019536797394e-08 5.885854204303e-04 0.000000000000e+00 1.864104541565e+07 1.013415508120e+07  5.174988712970e-04
5.300000000000e+02 4.465496889446e+06 1.000000000000e+00 5.538240983616e+01 -4.516537210472e-04 1.101901258421e-02 -2.412666062672e+07 -5.733297310534e+03 -1.252195786007e+07 -1.862831871098e+07 1.991623004860e-04 3.021970081351e-08 5.797105905007e-04 0.000000000000e+00 1.842564573259e+07 1.005456936399e+07  5.101700683038e-04
6.160000000000e+02 4.488012314786e+06 1.000000000000e+00 5.481772851346e+01 -4.472171122167e-04 1.090078782784e-02 -2.398361932463e+07 -5.732584108034e+03 -1.245250111736e+07 -1.836664633804e+07 1.947560035685e-04 3.027268157061e-08 5.725711528059e-04 0.000000000000e+00 1.826758892668e+07 9.987351588597e+06  5.042379985896e-04
7.020000000000e+02 4.501822576458e+06 1.000000000000e+00 5.440047279192e+01 -4.437331403397e-04 1.081010083928e-02 -2.387953667258e+07 -5.732786565284e+03 -1.240679885857e+07 -1.817547182301e+07 1.915211629435e-04 3.025764188918e-08 5.671678975741e-04 0.000000000000e+00 1.815393578472e+07 9.935739874736e+06  4.997350571181e-04
7.880000000000e+02 4.511441113274e+06 1.000000000000e+00 5.406847999146e+01 -4.404692335709e-04 1.072837896862e-02 -2.380207328868e+07 -5.731880592385e+03 -1.238763895670e+07 -1.803015402070e+07 1.890008559742e-04 3.032494273317e-08 5.624820327010e-04 0.000000000000e+00 1.807328875536e+07 9.885406833545e+06  4.957799691180e-04
8.740000000000e+02 4.519827167133e+06 1.000000000000e+00 5.354188228804e+01 -4.360764977682e-04 1.061285190553e-02 -2.367047754508e+07 -5.731825858866e+03 -1.232940223702e+07 -1.778864197854e+07 1.849182505992e-04 3.032900865169e-08 5.556746635804e-04 0.000000000000e+00 1.792950725354e+07 9.823936951481e+06  4.901170342049e-04
9.370000000000e+02 4.525201002276e+06 1.000000000000e+00 5.316718365869e+01 -4.320458753128e-04 1.051789601270e-02 -2.358116829457e+07 -5.731002490608e+03 -1.230569343332e+07 -1.762345967445e+07 1.821001086092e-04 3.039017315083e-08 5.504199335656e-04 0.000000000000e+00 1.783677380078e+07 9.770093658975e+06  4.856861393015e-04
1.000000000000e+03 4.529391016052e+06 1.000000000000e+00 5.286589748406e+01 -4.283949979380e-04 1.043839572349e-02 -2.350824269962e+07 -5.732507067576e+03 -1.228694096365e+07 -1.749042122647e+07 1.798673454965e-04 3.027840457608e-08 5.461750258001e-04 0.000000000000e+00 1.776186829658e+07 9.726463693138e+06  4.820999600362e-04
1.100000000000e+03 4.533536316160e+06 1.000000000000e+00 5.255970200791e+01 -4.244178884494e-04 1.035522293850e-02 -2.343380214699e+07 -5.731800565677e+03 -1.226910554289e+07 -1.735549775391e+07 1.776208370422e-04 3.033088757428e-08 5.418260410191e-04 0.000000000000e+00 1.768613514793e+07 9.681627378755e+06  4.784193017645e-04
1.200000000000e+03 4.536797682874e+06 1.000000000000e+00 5.229908155133e+01 -4.212342099445e-04 1.028610291553e-02 -2.337068965031e+07 -5.730477897480e+03 -1.225303084643e+07 -1.724045217694e+07 1.756918940598e-04 3.042914292610e-08 5.381499797428e-04 0.000000000000e+00 1.762139089122e+07 9.645120976890e+06  4.753151121982e-04
1.300000000000e+03 4.539703052077e+06 1.000000000000e+00 5.204956908330e+01 -4.182446631077e-04 1.022031571975e-02 -2.331041272814e+07 -5.731553560557e+03 -1.223755866293e+07 -1.713032579427e+07 1.738403426700e-04 3.034923652603e-08 5.346342523450e-04 0.000000000000e+00 1.755943239511e+07 9.610955700793e+06  4.723486526419e-04
1.400000000000e+03 4.542442562524e+06 1.000000000000e+00 5.179375503625e+01 -4.151444160308e-04 1.015233870309e-02 -2.324870760796e+07 -5.732123333343e+03 -1.222219678532e+07 -1.701759847700e+07 1.719452324922e-04 3.030691054765e-08 5.310178217291e-04 0.000000000000e+00 1.749616762343e+07 9.576187562168e+06  4.692963987838e-04
1.500000000000e+03 4.545082446453e+06 1.000000000000e+00 5.152156886824e+01 -4.117572382067e-04 1.007895256355e-02 -2.318312581844e+07 -5.731983138513e+03 -1.220671151469e+07 -1.689794089041e+07 1.699367028865e-04 3.031732502075e-08 5.271485642792e-04 0.000000000000e+00 1.742925940784e+07 9.539209892248e+06  4.660281167719e-04
1.600000000000e+03 4.547643486991e+06 1.000000000000e+00 5.122686851160e+01 -4.079756353685e-04 9.998183699848e-03 -2.311218615411e+07 -5.732099169959e+03 -1.219098822241e+07 -1.676872456380e+07 1.677721411448e-04 3.030870554193e-08 5.229331087182e-04 0.000000000000e+00 1.735729964678e+07 9.499156182632e+06  4.624639693735e-04
1.700000000000e+03 4.550130771773e+06 1.000000000000e+00 5.090586271066e+01 -4.037328504590e-04 9.908810606985e-03 -2.303497821287e+07 -5.731821518525e+03 -1.217496256463e+07 -1.662833013583e+07 1.654252144949e-04 3.032933107703e-08 5.183136972544e-04 0.000000000000e+00 1.727942363778e+07 9.455626877954e+06  4.585547279964e-04
1.800000000000e+03 4.552544175197e+06 1.000000000000e+00 5.055626324648e+01 -3.989889407473e-04 9.810096264149e-03 -2.295095143141e+07 -5.729921544772e+03 -1.215859753828e+07 -1.647578046121e+07 1.628800784631e-04 3.047047198439e-08 5.132554103180e-04 0.000000000000e+00 1.719510981030e+07 9.408533547525e+06  4.542707975008e-04
1.900000000000e+03 4.554883463306e+06 1.000000000000e+00 5.017678337252e+01 -3.937209366916e-04 9.701625637105e-03 -2.285980466416e+07 -5.731321977821e+03 -1.214188640748e+07 -1.631053281501e+07 1.601277601022e-04 3.036643981502e-08 5.077383397466e-04 0.000000000000e+00 1.710407462888e+07 9.358005756316e+06  4.495955081056e-04
2.000000000000e+03 4.557147803230e+06 1.000000000000e+00 4.976682089963e+01 -3.879186523806e-04 9.583206248222e-03 -2.276138651979e+07 -5.731365291238e+03 -1.212480536388e+07 -1.613232387171e+07 1.571641018561e-04 3.036322224688e-08 5.017535891860e-04 0.000000000000e+00 1.700617191846e+07 9.304346617586e+06  4.445217314615e-04