 TITLE = "Time curves in points"
 VARIABLES = "TIME"  "PRESSURE1"  "SATURATION1"  "TEMPERATURE1"  "DISPLACEMENT_X1"  "DISPLACEMENT_Y1"  "STRESS_XX"  "STRESS_XY"  "STRESS_YY"  "STRESS_ZZ"  "STRAIN_XX"  "STRAIN_XY"  "STRAIN_YY"  "STRAIN_PLS"  p_(1st_Invariant)  q_(2nd_Invariant)   Effective_Strain
 ZONE T="POINT=POINT12"
0.000000000000e+00 1.000000000000e+05 9.737398629779e-01 2.500000000000e+01 0.000000000000e+00 0.000000000000e+00 3.304572143556e+04 5.605493944878e+02 -4.446166165700e+06 1.775888667205e+05 0.000000000000e+00 0.000000000000e+00 0.000000000000e+00 0.000000000000e+00 1.411843859181e+06 4.553204604223e+06  0.000000000000e+00
1.000000000000e-03 1.349371324694e+05 9.738732786163e-01 2.500190493719e+01 -1.633040137345e-03 6.277134496286e-05 3.438104953442e+07 4.946157112598e+02 -1.437898603823e+07 8.698344694946e+06 3.078053697835e-02 -6.033322107199e-07 -1.962023522055e-04 0.000000000000e+00 -9.566802730377e+06 4.224751822388e+07  3.087910566853e-02
2.000000000000e-03 1.586949554940e+05 9.739760481653e-01 2.501128232622e+01 -1.632398910767e-03 6.219527072467e-05 3.438238738125e+07 4.082644422090e+02 -1.437312335511e+07 8.698773662276e+06 3.078267763616e-02 -8.999409326584e-07 -1.983610581730e-04 0.000000000000e+00 -9.569345896137e+06 4.224369937523e+07  3.088233599487e-02
3.000000000000e-03 1.749046962622e+05 9.740583247959e-01 2.503625057173e+01 -1.631701718610e-03 6.171933129771e-05 3.437844829323e+07 3.720674907381e+02 -1.437294017039e+07 8.693098806572e+06 3.078076429179e-02 -1.025401319562e-06 -2.003715330857e-04 0.000000000000e+00 -9.566202309803e+06 4.224024863977e+07  3.088143764825e-02
4.000000000000e-03 1.859692815091e+05 9.741267845415e-01 2.508342251393e+01 -1.630971682342e-03 6.120907170625e-05 3.437097871779e+07 3.583159916115e+02 -1.437984863331e+07 8.680337341841e+06 3.077644729294e-02 -1.072751095815e-06 -2.023134382038e-04 0.000000000000e+00 -9.557155808771e+06 4.223993607774e+07  3.087810115636e-02
1.000000000000e-02 2.022019260654e+05 9.744009610886e-01 2.588530372838e+01 -1.626535040698e-03 5.841449848651e-05 3.429789669348e+07 3.443244826923e+02 -1.456335954136e+07 8.461822963893e+06 3.073956177183e-02 -1.122742506155e-06 -2.135676415905e-04 0.000000000000e+00 -9.398786705337e+06 4.233842283741e+07  3.084690014498e-02
2.000000000000e-02 2.005752031459e+05 9.747951404362e-01 2.751661963512e+01 -1.619477648470e-03 5.659905238236e-05 3.417080624459e+07 3.355218038464e+02 -1.494383776442e+07 8.020826702978e+06 3.068335589767e-02 -1.156440218621e-06 -2.323723326868e-04 0.000000000000e+00 -9.082598394384e+06 4.256433660316e+07  3.080019956170e-02
3.000000000000e-02 1.906124123561e+05 9.751840658053e-01 2.905695014757e+01 -1.612683739114e-03 5.695262316471e-05 3.404737331459e+07 3.275495923791e+02 -1.529953487075e+07 7.603378234779e+06 3.063124471647e-02 -1.189277416414e-06 -2.514603945790e-04 0.000000000000e+00 -8.783738892874e+06 4.277233716198e+07  3.075774592418e-02
4.000000000000e-02 1.774616668181e+05 9.755777411960e-01 3.041807630714e+01 -1.606078674509e-03 5.963829395050e-05 3.392804741867e+07 3.199018478497e+02 -1.560599523822e+07 7.232836377841e+06 3.058101487083e-02 -1.220835807499e-06 -2.706743693492e-04 0.000000000000e+00 -8.518296186095e+06 4.294105206355e+07  3.071724656492e-02
5.000000000000e-02 1.633905267964e+05 9.759786801776e-01 3.160196227052e+01 -1.599724543657e-03 6.332271089257e-05 3.381493181276e+07 3.122223614628e+02 -1.586723668912e+07 6.908666677290e+06 3.053478328758e-02 -1.253513497938e-06 -2.904293459136e-04 0.000000000000e+00 -8.285453933644e+06 4.307555423514e+07  3.068102901592e-02
6.000000000000e-02 1.491083931937e+05 9.763893050728e-01 3.263282896442e+01 -1.593685391772e-03 6.932532080910e-05 3.371055784821e+07 3.051433859617e+02 -1.608446062284e+07 6.627299409342e+06 3.049522058379e-02 -1.283598700370e-06 -3.104595957065e-04 0.000000000000e+00 -8.084465544903e+06 4.317910835413e+07  3.065162968605e-02
7.000000000000e-02 1.354886679931e+05 9.768053791869e-01 3.353679193627e+01 -1.588016705761e-03 7.534118074398e-05 3.361410687631e+07 2.977976544111e+02 -1.627203176178e+07 6.379670036044e+06 3.046192121877e-02 -1.315708210000e-06 -3.309514316155e-04 0.000000000000e+00 -7.907248383524e+06 4.326338505651e+07  3.062873805463e-02
8.000000000000e-02 1.231930226661e+05 9.772274804933e-01 3.433655674687e+01 -1.582634438789e-03 8.214233008329e-05 3.352451749080e+07 2.890319423841e+02 -1.643237487727e+07 6.160762569344e+06 3.043410000999e-02 -1.353654332961e-06 -3.517986142410e-04 0.000000000000e+00 -7.750968394291e+06 4.332964365570e+07  3.061151556832e-02
9.000000000000e-02 1.131123970740e+05 9.776565610333e-01 3.505053234860e+01 -1.577453070873e-03 8.833144789980e-05 3.343841143906e+07 2.811194501531e+02 -1.657458228312e+07 5.963504329244e+06 3.040855050362e-02 -1.387689117330e-06 -3.729881320811e-04 0.000000000000e+00 -7.609111161726e+06 4.338280425681e+07  3.059674979645e-02
1.000000000000e-01 1.062485536859e+05 9.780980134285e-01 3.569339625593e+01 -1.572493991488e-03 9.387060214310e-05 3.335588232404e+07 2.754925241073e+02 -1.670233412781e+07 5.784264862126e+06 3.038535023473e-02 -1.411766883918e-06 -3.941865773342e-04 0.000000000000e+00 -7.479271019454e+06 4.342618022804e+07  3.058434885909e-02
2.000000000000e-01 1.283387776969e+05 9.817684635265e-01 3.937503620621e+01 -1.538327292653e-03 1.887007491530e-04 3.281251588345e+07 2.251588472868e+02 -1.724952114810e+07 4.789249943553e+06 3.032376097524e-02 -1.636346573222e-06 -5.879664038248e-04 0.000000000000e+00 -6.784081559636e+06 4.345813167418e+07  3.062197813499e-02
3.000000000000e-01 1.596900306655e+05 9.850831627633e-01 4.180164244035e+01 -1.507817707313e-03 2.983744416011e-04 3.232437447468e+07 1.689957959523e+02 -1.744189006764e+07 4.141152512614e+06 3.027156317258e-02 -1.896876097281e-06 -7.529096197664e-04 0.000000000000e+00 -6.341212306551e+06 4.322500904483e+07  3.065495346138e-02
4.000000000000e-01 1.915544227753e+05 9.879054523649e-01 4.356026046288e+01 -1.482011802461e-03 4.038074897787e-04 3.191015667556e+07 1.191217677199e+02 -1.749469905493e+07 3.677954237827e+06 3.025404996253e-02 -2.141632603896e-06 -8.997315929592e-04 0.000000000000e+00 -6.031137286154e+06 4.293121400436e+07  3.071380136682e-02
5.000000000000e-01 2.217500806099e+05 9.900852945803e-01 4.491994241792e+01 -1.459264613178e-03 5.062362309522e-04 3.152678568793e+07 7.063670345524e+01 -1.746763205774e+07 3.319640963896e+06 3.022405583163e-02 -2.389606165098e-06 -1.024505241198e-03 0.000000000000e+00 -5.792931531360e+06 4.259229216317e+07  3.074911190007e-02
6.000000000000e-01 2.497056666290e+05 9.918481572637e-01 4.601750140895e+01 -1.439122910302e-03 6.061072287037e-04 3.115446942667e+07 3.153095218001e+01 -1.738712688798e+07 3.027379749674e+06 3.014770061433e-02 -2.603081584069e-06 -1.111371418268e-03 0.000000000000e+00 -5.598240762787e+06 4.221475943161e+07  3.071846857963e-02
7.000000000000e-01 2.755633994615e+05 9.932942439530e-01 4.693306985185e+01 -1.421349247580e-03 7.036063560251e-04 3.080275917078e+07 2.999774594267e+01 -1.727906271610e+07 2.782171784383e+06 3.005575711165e-02 -2.655954937408e-06 -1.183030891979e-03 0.000000000000e+00 -5.435289413021e+06 4.182982215555e+07  3.066439316134e-02
8.000000000000e-01 2.995592322792e+05 9.944284242685e-01 4.771477062563e+01 -1.406540601883e-03 7.988980156861e-04 3.049352361963e+07 3.698160415469e+01 -1.716466817666e+07 2.576338865073e+06 2.997357379379e-02 -2.669986267860e-06 -1.249448357158e-03 0.000000000000e+00 -5.301731436013e+06 4.147517214517e+07  3.061742479521e-02
9.000000000000e-01 3.218074039441e+05 9.953532695392e-01 4.839443463487e+01 -1.393292790946e-03 8.919477362250e-04 3.019067333131e+07 5.597137553515e+01 -1.703785238223e+07 2.394203007858e+06 2.986449615784e-02 -2.628877749047e-06 -1.298156077110e-03 0.000000000000e+00 -5.182341318979e+06 4.111436598210e+07  3.053427808010e-02
1.000000000000e+00 3.424796052604e+05 9.960967578468e-01 4.899370020690e+01 -1.381568132942e-03 9.828128148419e-04 2.989856873118e+07 9.225527829217e+01 -1.690269628680e+07 2.232157668371e+06 2.973298979592e-02 -2.508621674565e-06 -1.330740991382e-03 0.000000000000e+00 -5.076010037584e+06 4.075494659742e+07  3.042019856917e-02
2.000000000000e+00 4.781310247773e+05 9.988156052308e-01 5.222326034264e+01 -1.313990869584e-03 1.736077838526e-03 2.738627975019e+07 5.253989119071e+02 -1.551686929686e+07 1.237568547212e+06 2.784471813497e-02 -7.861667296116e-07 -1.314173230054e-03 0.000000000000e+00 -4.368993000179e+06 3.745094447979e+07  2.852451865185e-02
3.000000000000e+00 5.822430802924e+05 9.997925424171e-01 5.428597477287e+01 -1.265885308084e-03 2.378775742506e-03 2.515213392653e+07 1.602087019507e+03 -1.421316229091e+07 5.141545597357e+05 2.586288048872e-02 3.892108265986e-06 -1.188852477063e-03 0.000000000000e+00 -3.817708731787e+06 3.444960413840e+07  2.647733280307e-02
4.000000000000e+00 6.688440450726e+05 1.000000000000e+00 5.577987227609e+01 -1.227895420663e-03 2.939113202234e-03 2.317322815714e+07 2.685080425137e+03 -1.303697739353e+07 -6.280960682285e+04 2.398961617813e-02 8.653438268129e-06 -1.044946460097e-03 0.000000000000e+00 -3.357813718930e+06 3.177594617007e+07  2.452879301207e-02
5.000000000000e+00 7.447781147108e+05 1.000000000000e+00 5.697326348137e+01 -1.196340725593e-03 3.436432194495e-03 2.142584005192e+07 3.810954536916e+03 -1.199072236497e+07 -5.484618096558e+05 2.228900922564e-02 1.361657280243e-05 -9.074108596899e-04 0.000000000000e+00 -2.962218625766e+06 2.941480919386e+07  2.275629961099e-02
6.000000000000e+00 8.135423083599e+05 1.000000000000e+00 5.801459164103e+01 -1.167894701677e-03 3.885172020953e-03 1.983752864725e+07 4.743531549923e+03 -1.105586661461e+07 -9.874523205452e+05 2.072117866713e-02 1.773285651410e-05 -7.779404927513e-04 0.000000000000e+00 -2.598069904032e+06 2.728969406679e+07  2.112091911046e-02
7.000000000000e+00 8.773475156897e+05 1.000000000000e+00 5.887443451018e+01 -1.143400611488e-03 4.292388146184e-03 1.843097633195e+07 5.508531329050e+03 -1.020539837816e+07 -1.358635745469e+06 1.932310428384e-02 2.111663636511e-05 -6.615035870512e-04 0.000000000000e+00 -2.288980736107e+06 2.539622111510e+07  1.966223758105e-02
8.000000000000e+00 9.368946387933e+05 1.000000000000e+00 5.970623064335e+01 -1.121362799873e-03 4.667809985196e-03 1.715059265560e+07 5.998465580956e+03 -9.446452589546e+06 -1.709833080192e+06 1.804491926002e-02 2.328660707436e-05 -5.546179738327e-04 0.000000000000e+00 -1.998102328622e+06 2.369571661746e+07  1.832856719860e-02
9.000000000000e+00 9.932729967175e+05 1.000000000000e+00 6.046027846806e+01 -1.101086479679e-03 5.015923589895e-03 1.597287721300e+07 6.440857376519e+03 -8.749349697697e+06 -2.031257386775e+06 1.686638606592e-02 2.524532555994e-05 -4.556999641205e-04 0.000000000000e+00 -1.730756709510e+06 2.214125537675e+07  1.709884688763e-02
1.000000000000e+01 1.046979202595e+06 1.000000000000e+00 6.113990196855e+01 -1.081889280480e-03 5.340092532184e-03 1.487189351260e+07 6.833887267283e+03 -8.101345664032e+06 -2.328447500558e+06 1.576102386988e-02 2.698443266439e-05 -3.631546267265e-04 0.000000000000e+00 -1.480700116002e+06 2.069961452121e+07  1.594577147488e-02
1.100000000000e+01 1.098305281501e+06 1.000000000000e+00 6.177851060672e+01 -1.064589664745e-03 5.643932506355e-03 1.385878150391e+07 6.830999304887e+03 -7.504632165853e+06 -2.604185575453e+06 1.474090130534e-02 2.697264685866e-05 -2.774163137022e-04 0.000000000000e+00 -1.249987920869e+06 1.938349021000e+07  1.488162222933e-02
1.200000000000e+01 1.147653443365e+06 1.000000000000e+00 6.236004508458e+01 -1.048749890744e-03 5.929414448408e-03 1.291874424607e+07 7.000767705473e+03 -6.948170245151e+06 -2.857315973834e+06 1.379204546753e-02 2.772569126562e-05 -1.977795691227e-04 0.000000000000e+00 -1.037752675695e+06 1.817021945653e+07  1.389207421115e-02
1.300000000000e+01 1.195285044234e+06 1.000000000000e+00 6.288648339314e+01 -1.034074474261e-03 6.198131577038e-03 1.204125284827e+07 7.114724902199e+03 -6.423624471279e+06 -3.089233138923e+06 1.290391248058e-02 2.823123132481e-05 -1.233145616421e-04 0.000000000000e+00 -8.427984126880e+05 1.704408650981e+07  1.296610176984e-02
1.400000000000e+01 1.241917176453e+06 1.000000000000e+00 6.336174478836e+01 -1.020609848116e-03 6.451626946129e-03 1.122525265850e+07 7.128127115621e+03 -5.927454899691e+06 -3.299914701124e+06 1.207613971988e-02 2.828997469452e-05 -5.389328922340e-05 0.000000000000e+00 -6.659610192277e+05 1.600156454473e+07  1.210327554340e-02
1.500000000000e+01 1.287103505904e+06 1.000000000000e+00 6.378971637169e+01 -1.008226671108e-03 6.690832729717e-03 1.046468688632e+07 7.087172323173e+03 -5.458989559765e+06 -3.491882815294e+06 1.130317199492e-02 2.810988738177e-05 1.066642102493e-05 0.000000000000e+00 -5.046048370855e+05 1.503693984339e+07  1.129794746958e-02
1.600000000000e+01 1.330983462777e+06 1.000000000000e+00 6.417392937615e+01 -9.965350164754e-04 6.916760559604e-03 9.748256271103e+06 7.049010257382e+03 -5.014327230919e+06 -3.668418811616e+06 1.057314818988e-02 2.794066689726e-05 7.107293181436e-05 0.000000000000e+00 -3.551700761896e+05 1.413776519705e+07  1.053790260958e-02
1.700000000000e+01 1.373696498358e+06 1.000000000000e+00 6.451749968603e+01 -9.850542792399e-04 7.130299183768e-03 9.062015463400e+06 6.973943669181e+03 -4.589175972251e+06 -3.833477844646e+06 9.872300899786e-03 2.760875676113e-05 1.285622448932e-04 0.000000000000e+00 -2.131205488340e+05 1.328947227594e+07  9.808768264728e-03
1.800000000000e+01 1.415377458201e+06 1.000000000000e+00 6.482315973392e+01 -9.737142653072e-04 7.332235995271e-03 8.403132722461e+06 6.851817048547e+03 -4.181508691726e+06 -3.987878796006e+06 9.198012978311e-03 2.706817207506e-05 1.833327171795e-04 0.000000000000e+00 -7.791507824284e+04 1.248895792681e+07  9.107851282285e-03
1.900000000000e+01 1.456118574338e+06 1.000000000000e+00 6.509330887858e+01 -9.624743574728e-04 7.523264109120e-03 7.769377540815e+06 6.707895906979e+03 -3.790115976753e+06 -4.132432893500e+06 8.548349398632e-03 2.643078996907e-05 2.355054776409e-04 0.000000000000e+00 5.105710981259e+04 1.173440311315e+07  8.433187589690e-03
2.000000000000e+01 1.496004179868e+06 1.000000000000e+00 6.533005834522e+01 -9.520463383817e-04 7.704001984764e-03 7.175925374890e+06 6.296211863449e+03 -3.418538575409e+06 -4.263439425198e+06 7.939030885403e-03 2.460462769162e-05 2.843786901387e-04 0.000000000000e+00 1.686842085727e+05 1.104119170931e+07  7.800846594936e-03
2.100000000000e+01 1.534961124191e+06 1.000000000000e+00 6.558369733349e+01 -9.420539222939e-04 7.876722875014e-03 6.610320401539e+06 6.107211235918e+03 -3.070968987556e+06 -4.395200836406e+06 7.358417196086e-03 2.376835380306e-05 3.306921172958e-04 0.000000000000e+00 2.852831408077e+05 1.040679287129e+07  7.198887771698e-03
2.200000000000e+01 1.573147019061e+06 1.000000000000e+00 6.582121876906e+01 -9.321681353497e-04 8.041830083956e-03 6.063547687943e+06 5.874011174338e+03 -2.736376658350e+06 -4.521645378008e+06 6.796833822823e-03 2.273596729597e-05 3.753376659883e-04 0.000000000000e+00 3.981581161381e+05 9.815099901921e+06  6.617270691761e-03
2.300000000000e+01 1.610629203181e+06 1.000000000000e+00 6.603794675424e+01 -9.231543241544e-04 8.199611087904e-03 5.552570966295e+06 5.553811626387e+03 -2.417197104036e+06 -4.636948181634e+06 6.271554666573e-03 2.131691115728e-05 4.173770063611e-04 0.000000000000e+00 5.005247731249e+05 9.280920845378e+06  6.073743657859e-03
2.400000000000e+01 1.647450492331e+06 1.000000000000e+00 6.623326874264e+01 -9.145920143225e-04 8.350328327327e-03 5.067380452153e+06 5.291160485559e+03 -2.109994861387e+06 -4.743377679597e+06 5.772276987599e-03 2.015416117479e-05 4.568252596088e-04 0.000000000000e+00 5.953306962769e+05 8.794900924872e+06  5.558072289619e-03
2.500000000000e+01 1.683663945650e+06 1.000000000000e+00 6.640751983736e+01 -9.063539529413e-04 8.494242451600e-03 4.604229744047e+06 5.049694322577e+03 -1.813600856723e+06 -4.841895498658e+06 5.295182225666e-03 1.908436785389e-05 4.942469632195e-04 0.000000000000e+00 6.837555371117e+05 8.354296893093e+06  5.066280664178e-03
2.600000000000e+01 1.719311704853e+06 1.000000000000e+00 6.656129793390e+01 -8.982497574682e-04 8.631598539049e-03 4.157945558418e+06 4.805961093594e+03 -1.527014577603e+06 -4.934039839542e+06 4.835041916652e-03 1.800412523673e-05 5.299076138163e-04 0.000000000000e+00 7.677029529089e+05 7.955844705119e+06  4.593177477061e-03
2.700000000000e+01 1.754422095596e+06 1.000000000000e+00 6.669528145857e+01 -8.902315504753e-04 8.762635778201e-03 3.726895213869e+06 4.583545494182e+03 -1.249561997432e+06 -5.020291990955e+06 4.390274082992e-03 1.701711167121e-05 5.639196672066e-04 0.000000000000e+00 8.476529248396e+05 7.599241446010e+06  4.137344409316e-03
2.800000000000e+01 1.789036739877e+06 1.000000000000e+00 6.681015189256e+01 -8.821965513420e-04 8.887572791941e-03 3.308104841206e+06 4.322825316221e+03 -9.798714448575e+05 -5.101353010127e+06 3.957827482017e-03 1.586240093578e-05 5.969343508047e-04 0.000000000000e+00 9.243732045931e+05 7.283283751062e+06  3.695797703514e-03
2.900000000000e+01 1.823183050787e+06 1.000000000000e+00 6.690656574179e+01 -8.740928191405e-04 9.006615735696e-03 2.900191793611e+06 4.047757326440e+03 -7.178675578694e+05 -5.177781065723e+06 3.536836314045e-03 1.464339773396e-05 6.285281652816e-04 0.000000000000e+00 9.984856099939e+05 7.008385184567e+06  3.268317734680e-03
3.000000000000e+01 1.856866772528e+06 1.000000000000e+00 6.698515066627e+01 -8.659448056157e-04 9.119968480184e-03 2.503062925551e+06 3.787016096244e+03 -4.629767399828e+05 -5.249555978462e+06 3.126467746853e-03 1.348675388579e-05 6.591576772345e-04 0.000000000000e+00 1.069823264298e+06 6.775393642571e+06  2.854645315131e-03
3.100000000000e+01 1.890011527563e+06 1.000000000000e+00 6.708483647829e+01 -8.577005470103e-04 9.229178562000e-03 2.112495383729e+06 3.514977475526e+03 -2.213011153287e+05 -5.326764643021e+06 2.723469741562e-03 1.228087740090e-05 6.892821538071e-04 0.000000000000e+00 1.145190124874e+06 6.589955531247e+06  2.452674191840e-03
3.200000000000e+01 1.922699183836e+06 1.000000000000e+00 6.717871592036e+01 -8.492256806630e-04 9.334356939910e-03 1.725553562203e+06 3.233509700932e+03 1.506797387899e+04 -5.403297590727e+06 2.324606775861e-03 1.103235344695e-05 7.189547071366e-04 0.000000000000e+00 1.220892018215e+06 6.446123945199e+06  2.061497195732e-03
3.300000000000e+01 1.954955672421e+06 1.000000000000e+00 6.726239570514e+01 -8.405069552076e-04 9.435557294476e-03 1.340984705878e+06 2.950300153863e+03 2.476536806701e+05 -5.478339891370e+06 1.928482664991e-03 9.777464569581e-06 7.484367618383e-04 0.000000000000e+00 1.296567168274e+06 6.343721908548e+06  1.684085048635e-03
3.400000000000e+01 1.986803330125e+06 1.000000000000e+00 6.733480007826e+01 -8.315855947485e-04 9.532810454418e-03 9.600098151566e+05 2.660327457338e+03 4.759450644271e+05 -5.551462276025e+06 1.536463482448e-03 8.490491001771e-06 7.770120824302e-04 0.000000000000e+00 1.371835798814e+06 6.283441301903e+06  1.330726637735e-03
3.500000000000e+01 2.018284172600e+06 1.000000000000e+00 6.739567261952e+01 -8.221031258486e-04 9.626174655388e-03 5.737339643146e+05 2.372321267644e+03 7.025666426062e+05 -5.624820550459e+06 1.139161207145e-03 7.212880503685e-06 8.058889334919e-04 0.000000000000e+00 1.449506647846e+06 6.263965931821e+06  1.014526439095e-03
3.600000000000e+01 2.049440917471e+06 1.000000000000e+00 6.744503322370e+01 -8.116488249649e-04 9.715703963189e-03 1.733857713844e+05 2.129243831837e+03 9.297348919223e+05 -5.700712721027e+06 7.283550539238e-04 6.135756832027e-06 8.349076628658e-04 0.000000000000e+00 1.532530685907e+06 6.286491861159e+06  7.871312576795e-04
3.700000000000e+01 2.080362390059e+06 1.000000000000e+00 6.748302603095e+01 -7.987321677037e-04 9.801451221562e-03 -2.763933252765e+05 2.377750637805e+03 1.166387373403e+06 -5.788387060133e+06 2.684190129060e-04 7.234300974945e-06 8.665614608631e-04 0.000000000000e+00 1.632797670669e+06 6.357382024904e+06  7.684614273515e-04
3.800000000000e+01 2.113459417354e+06 1.000000000000e+00 6.751020486373e+01 -7.347160277382e-04 9.883604603288e-03 -1.903796246740e+06 -8.121278443285e+02 1.700268795208e+06 -6.181619709104e+06 -1.367784530921e-03 -6.907371268969e-06 9.663239198822e-04 0.000000000000e+00 2.128382386879e+06 6.834223758169e+06  2.031374531191e-03
3.900000000000e+01 2.143157947788e+06 1.000000000000e+00 6.752579028260e+01 -7.402506554933e-04 9.962078220953e-03 -1.903570350237e+06 -8.149380336549e+02 1.822739439869e+06 -6.147703797917e+06 -1.371953981918e-03 -6.920251258383e-06 9.730798019783e-04 0.000000000000e+00 2.076178236095e+06 6.907460559608e+06  2.040663227531e-03
4.000000000000e+01 2.172544101843e+06 1.000000000000e+00 6.753043232308e+01 -7.454849955418e-04 1.003702130415e-02 -1.903118868786e+06 -8.147233816901e+02 1.942482292844e+06 -6.112597269047e+06 -1.375926734458e-03 -6.919720841390e-06 9.795355497961e-04 0.000000000000e+00 2.024411281663e+06 6.978275841053e+06  2.049530938980e-03
4.200000000000e+01 2.229827605392e+06 1.000000000000e+00 6.757125584999e+01 -7.550998231703e-04 1.017736718366e-02 -1.902710695436e+06 -8.150546222312e+02 2.160088576897e+06 -6.054629570173e+06 -1.383146119938e-03 -6.920848921607e-06 9.917061532905e-04 0.000000000000e+00 1.932417229571e+06 7.114294290066e+06  2.066008832523e-03
4.400000000000e+01 2.285593809494e+06 1.000000000000e+00 6.759113649801e+01 -7.639183969349e-04 1.030820588753e-02 -1.901911202609e+06 -8.155413796128e+02 2.368743040285e+06 -5.995514825627e+06 -1.389888744657e-03 -6.922812985802e-06 1.003106581340e-03 0.000000000000e+00 1.842894329317e+06 7.244200850434e+06  2.081433126278e-03
5.000000000000e+01 2.437116678573e+06 1.000000000000e+00 6.734183185377e+01 -7.818210802344e-04 1.058190525796e-02 -1.895063916634e+06 -8.159718463109e+02 2.883212120675e+06 -5.795553254070e+06 -1.405282767993e-03 -6.924640614974e-06 1.027111000954e-03 0.000000000000e+00 1.602468350010e+06 7.528834949211e+06  2.115018181647e-03
6.500000000000e+01 2.768502507756e+06 1.000000000000e+00 6.648752545963e+01 -8.050376814070e-04 1.104624399290e-02 -1.871920812063e+06 -8.154908518412e+02 3.911557977988e+06 -5.329716127155e+06 -1.430542595844e-03 -6.922964232740e-06 1.069998020320e-03 0.000000000000e+00 1.096692987077e+06 8.087216036208e+06  2.173055316795e-03
8.000000000000e+01 3.023556374630e+06 1.000000000000e+00 6.543082353429e+01 -8.117918906127e-04 1.126661040916e-02 -1.847455154014e+06 -8.157177772277e+02 4.595762292513e+06 -4.930611015285e+06 -1.444125654448e-03 -6.923675164979e-06 1.091754806171e-03 0.000000000000e+00 7.274346255950e+05 8.419402993087e+06  2.203225453381e-03
1.000000000000e+02 3.324236305531e+06 1.000000000000e+00 6.427554042713e+01 -8.135545609552e-04 1.145109548879e-02 -1.820155195856e+06 -8.155670098059e+02 5.258900220266e+06 -4.519394901739e+06 -1.455148367707e-03 -6.923290753389e-06 1.110960480357e-03 0.000000000000e+00 3.602166257763e+05 8.746827426510e+06  2.229001140959e-03
1.860000000000e+02 3.922717201764e+06 1.000000000000e+00 6.153675265456e+01 -8.002139783984e-04 1.167042289438e-02 -1.754381995844e+06 -8.158340618200e+02 6.541613497675e+06 -3.630492800213e+06 -1.469146612033e-03 -6.924102615122e-06 1.140920641207e-03 0.000000000000e+00 -3.855795672057e+05 9.375902183465e+06  2.266366078417e-03
2.720000000000e+02 4.213038211969e+06 1.000000000000e+00 5.948579584105e+01 -7.743305423243e-04 1.150233302591e-02 -1.713105170668e+06 -8.157314574296e+02 6.872812228373e+06 -3.155864624945e+06 -1.464624096136e-03 -6.923711449793e-06 1.130039213832e-03 0.000000000000e+00 -6.679474775866e+05 9.390790590969e+06  2.253295107899e-03
3.580000000000e+02 4.354403691727e+06 1.000000000000e+00 5.805292640175e+01 -7.523928971590e-04 1.132644005156e-02 -1.684835099947e+06 -8.155344478429e+02 7.008334155180e+06 -2.853112269740e+06 -1.458459505984e-03 -6.923329724480e-06 1.117327398815e-03 0.000000000000e+00 -8.234622618312e+05 9.332314633195e+06  2.237240534749e-03
4.440000000000e+02 4.426532453840e+06 1.000000000000e+00 5.696373633706e+01 -7.342352917245e-04 1.116185086062e-02 -1.664099676958e+06 -8.155520372587e+02 7.052614758270e+06 -2.640807663615e+06 -1.452382928007e-03 -6.923257434537e-06 1.104555587044e-03 0.000000000000e+00 -9.159024725657e+05 9.243849611400e+06  2.221225041858e-03
5.300000000000e+02 4.465496889446e+06 1.000000000000e+00 5.612711280058e+01 -7.195101032473e-04 1.101920488096e-02 -1.648570445299e+06 -8.145743545747e+02 7.055686259935e+06 -2.487126757718e+06 -1.446983734015e-03 -6.919954043782e-06 1.093107652297e-03 0.000000000000e+00 -9.733296856390e+05 9.152391647837e+06  2.206920686320e-03
6.160000000000e+02 4.488012314786e+06 1.000000000000e+00 5.549035311406e+01 -7.078419760130e-04 1.090097980845e-02 -1.636990391361e+06 -8.153965804343e+02 7.039510201570e+06 -2.375780387013e+06 -1.442437984405e-03 -6.923281520023e-06 1.083414697346e-03 0.000000000000e+00 -1.008913141065e+06 9.068494198418e+06  2.194838730539e-03
7.020000000000e+02 4.501822576458e+06 1.000000000000e+00 5.502253479186e+01 -6.990861800979e-04 1.081029285845e-02 -1.628583534051e+06 -8.154481640319e+02 7.020023266842e+06 -2.296285135206e+06 -1.438921964454e-03 -6.923487588563e-06 1.075891186912e-03 0.000000000000e+00 -1.031718199195e+06 9.001050806891e+06  2.185476041991e-03
7.880000000000e+02 4.511441113274e+06 1.000000000000e+00 5.465676147444e+01 -6.918243013108e-04 1.072857100937e-02 -1.622355024058e+06 -8.152174514569e+02 6.982674449325e+06 -2.240867536460e+06 -1.435717041232e-03 -6.922836754895e-06 1.068841636596e-03 0.000000000000e+00 -1.039817296269e+06 8.930364514308e+06  2.176787494371e-03
8.740000000000e+02 4.519827167133e+06 1.000000000000e+00 5.406608326674e+01 -6.807726505670e-04 1.061304395535e-02 -1.611727386626e+06 -8.151554942174e+02 6.958748585591e+06 -2.140287492695e+06 -1.431288854253e-03 -6.922794943387e-06 1.059377954949e-03 0.000000000000e+00 -1.068911235423e+06 8.846606573057e+06  2.165014796801e-03
9.370000000000e+02 4.525201002276e+06 1.000000000000e+00 5.365787213105e+01 -6.722742974310e-04 1.051808804374e-02 -1.604630959388e+06 -8.150133569076e+02 6.915647465710e+06 -2.078805689009e+06 -1.427497202491e-03 -6.922423348428e-06 1.051426664812e-03 0.000000000000e+00 -1.077403605771e+06 8.766988583697e+06  2.155063497226e-03
1.000000000000e+03 4.529391016052e+06 1.000000000000e+00 5.333507694759e+01 -6.651019691069e-04 1.043858787053e-02 -1.598920398069e+06 -8.153115702706e+02 6.877041074967e+06 -2.031499443913e+06 -1.424217634633e-03 -6.923250343621e-06 1.044891288498e-03 0.000000000000e+00 -1.082207077662e+06 8.700320272502e+06  2.146739404100e-03
1.100000000000e+03 4.533536316160e+06 1.000000000000e+00 5.301054744614e+01 -6.575989897400e-04 1.035541510604e-02 -1.593141697418e+06 -8.151616109758e+02 6.834205194091e+06 -1.985124623248e+06 -1.420726515007e-03 -6.922910789297e-06 1.038103165846e-03 0.000000000000e+00 -1.085312957809e+06 8.630017632018e+06  2.138019290487e-03
1.200000000000e+03 4.536797682874e+06 1.000000000000e+00 5.273161300336e+01 -6.513742658525e-04 1.028629498239e-02 -1.588203803637e+06 -8.148797419696e+02 6.800449808066e+06 -1.944362887411e+06 -1.417874030429e-03 -6.922242744309e-06 1.032434473526e-03 0.000000000000e+00 -1.089294372339e+06 8.572284169732e+06  2.130796444702e-03
1.300000000000e+03 4.539703052077e+06 1.000000000000e+00 5.246378838969e+01 -6.454628485548e-04 1.022050802587e-02 -1.583475982838e+06 -8.146142635846e+02 6.768735103314e+06 -1.905022203900e+06 -1.415176394780e-03 -6.921109135688e-06 1.027029606329e-03 0.000000000000e+00 -1.093412305525e+06 8.517537549255e+06  2.123931684751e-03
1.400000000000e+03 4.542442562524e+06 1.000000000000e+00 5.218966310622e+01 -6.393761359145e-04 1.015253088937e-02 -1.578641565129e+06 -8.152294185787e+02 6.735397585647e+06 -1.865019532523e+06 -1.412387215725e-03 -6.923347957491e-06 1.021450831060e-03 0.000000000000e+00 -1.097245495998e+06 8.460863961055e+06  2.116843721425e-03
1.500000000000e+03 4.545082446453e+06 1.000000000000e+00 5.189916622625e+01 -6.328319634527e-04 1.007914478517e-02 -1.573518755936e+06 -8.151737518199e+02 6.698270293510e+06 -1.823164785148e+06 -1.409363656291e-03 -6.923206829764e-06 1.015442453891e-03 0.000000000000e+00 -1.100528917475e+06 8.399395127188e+06  2.109194342584e-03
1.600000000000e+03 4.547643486991e+06 1.000000000000e+00 5.158615547626e+01 -6.256584104437e-04 9.998375963845e-03 -1.567997578573e+06 -8.151046247985e+02 6.655999430472e+06 -1.778742082876e+06 -1.406018396720e-03 -6.923003960940e-06 1.008846850537e-03 0.000000000000e+00 -1.103086589674e+06 8.331368688103e+06  2.100776217266e-03
1.700000000000e+03 4.550130771774e+06 1.000000000000e+00 5.124683947730e+01 -6.177489556941e-04 9.909002822657e-03 -1.562010070907e+06 -8.152043509835e+02 6.607742711456e+06 -1.731311508563e+06 -1.402297209125e-03 -6.923494573521e-06 1.001566367153e-03 0.000000000000e+00 -1.104807043995e+06 8.255705686781e+06  2.091461253831e-03
1.800000000000e+03 4.552544175197e+06 1.000000000000e+00 5.087892993154e+01 -6.090397213893e-04 9.810288431756e-03 -1.555515477235e+06 -8.147144909682e+02 6.552990007804e+06 -1.680608168050e+06 -1.398167580100e-03 -6.922104399059e-06 9.935419811964e-04 0.000000000000e+00 -1.105622120840e+06 8.171770074047e+06  2.081172790666e-03
1.900000000000e+03 4.554883463306e+06 1.000000000000e+00 5.048114003996e+01 -5.994943002026e-04 9.701817868084e-03 -1.548491038918e+06 -8.150586527337e+02 6.491436385018e+06 -1.626488579902e+06 -1.393610805412e-03 -6.923071903180e-06 9.847395563344e-04 0.000000000000e+00 -1.105485588733e+06 8.079208696418e+06  2.069867276849e-03
2.000000000000e+03 4.557147803230e+06 1.000000000000e+00 5.005286757737e+01 -5.890961309948e-04 9.583398524648e-03 -1.540925819741e+06 -8.150073501835e+02 6.422968523640e+06 -1.568876669164e+06 -1.388618638681e-03 -6.923012707977e-06 9.751446365520e-04 0.000000000000e+00 -1.104388678245e+06 7.977906615576e+06  2.057526813416e-03