 TITLE = "Time curves in points"
 VARIABLES = "TIME"  "PRESSURE1"  "SATURATION1"  "TEMPERATURE1"  "DISPLACEMENT_X1"  "DISPLACEMENT_Y1"  "STRESS_XX"  "STRESS_XY"  "STRESS_YY"  "STRESS_ZZ"  "STRAIN_XX"  "STRAIN_XY"  "STRAIN_YY"  "STRAIN_PLS"  p_(1st_Invariant)  q_(2nd_Invariant)   Effective_Strain
 ZONE T="POINT=POINT1"
0.000000000000e+00 -7.000000000000e+07 6.684759947500e-01 2.500000000000e+01 0.000000000000e+00 0.000000000000e+00 0.000000000000e+00 0.000000000000e+00 0.000000000000e+00 0.000000000000e+00 0.000000000000e+00 0.000000000000e+00 0.000000000000e+00 0.000000000000e+00 -0.000000000000e+00 0.000000000000e+00  0.000000000000e+00
1.000000000000e-03 -7.000000000000e+07 6.684759947500e-01 3.310906251120e+01 7.112439628240e-05 6.371264291014e-05 1.891221380488e+07 -1.356577003752e+02 3.016347887230e+07 1.470467850954e+07 -1.745157425102e-04 -3.957491888790e-07 1.477305548059e-04 0.000000000000e+00 -2.126012372891e+07 1.384320822001e+07  2.793954876565e-04
2.000000000000e-03 -7.015907471057e+07 6.678662381927e-01 3.680326491091e+01 7.108743492245e-05 6.347475170011e-05 1.883646673484e+07 -1.651969497948e+02 3.009518276948e+07 1.465555479338e+07 -2.004765675629e-04 -4.742082726074e-07 1.478941461858e-04 0.000000000000e+00 -2.119573476590e+07 1.383150070699e+07  3.028423980031e-04
3.000000000000e-03 -7.037130643829e+07 6.670521895367e-01 3.937002963826e+01 7.104815282113e-05 6.314953268419e-05 1.874409226801e+07 -1.828962061151e+02 3.001686425843e+07 1.459943178887e+07 -2.470591207577e-04 -5.232341386634e-07 1.482837338179e-04 0.000000000000e+00 -2.112012943844e+07 1.381938535155e+07  3.459218771430e-04
4.000000000000e-03 -7.061820310675e+07 6.661049303527e-01 4.139950482369e+01 7.100762778258e-05 6.274498536805e-05 1.864126291891e+07 -2.133102573651e+02 2.993209723241e+07 1.453864967979e+07 -3.053429622431e-04 -6.138623556933e-07 1.488021979089e-04 0.000000000000e+00 -2.103733661037e+07 1.380711053612e+07  4.010152778544e-04
1.000000000000e-02 -7.212935243526e+07 6.602938370899e-01 4.814735807512e+01 7.078354426106e-05 6.000856949848e-05 1.803926674755e+07 -2.254538366225e+02 2.945899421284e+07 1.419561420672e+07 -6.888986375120e-04 -6.492498911894e-07 1.522637281213e-04 0.000000000000e+00 -2.056462505571e+07 1.375053834859e+07  7.763125112278e-04
2.000000000000e-02 -7.524730940055e+07 6.482622408616e-01 5.436284697329e+01 7.039546431062e-05 5.827963009740e-05 1.689319112821e+07 -2.628807201183e+02 2.861911110897e+07 1.356824449343e+07 -1.485769891147e-03 -7.626314356155e-07 1.592808277304e-04 0.000000000000e+00 -1.969351557687e+07 1.369454372757e+07  1.571476679566e-03
3.000000000000e-02 -7.893055077024e+07 6.339986410985e-01 5.830141004820e+01 6.997984484196e-05 5.854385345843e-05 1.562979643031e+07 -2.122363357925e+02 2.776091102293e+07 1.289019724223e+07 -2.360331229463e-03 -6.076981161711e-07 1.663090022734e-04 0.000000000000e+00 -1.876030156516e+07 1.370779839341e+07  2.447727034764e-03
4.000000000000e-02 -8.274830792201e+07 6.191580337515e-01 6.102918923515e+01 6.956947711579e-05 6.124444741488e-05 1.441795240921e+07 -2.156177840349e+02 2.698693431535e+07 1.225579161817e+07 -3.220289556001e-03 -6.177981752144e-07 1.730497948410e-04 0.000000000000e+00 -1.788689278091e+07 1.377789553754e+07  3.310208852625e-03
5.000000000000e-02 -8.646459330675e+07 6.110473733131e-01 6.303909276829e+01 6.911734594076e-05 6.494265089548e-05 1.289227123591e+07 -2.166512851388e+02 2.588487723244e+07 1.142258537428e+07 -4.274292973480e-03 -6.207222693704e-07 1.837397365181e-04 0.000000000000e+00 -1.673324461421e+07 1.378632788644e+07  4.369061608006e-03
6.000000000000e-02 -8.999223956686e+07 6.035635923876e-01 6.459150071785e+01 6.867068584307e-05 7.100017434282e-05 1.144043790940e+07 -2.394422172691e+02 2.493652040258e+07 1.065995390939e+07 -5.318820097822e-03 -6.895484891421e-07 1.924244532283e-04 0.000000000000e+00 -1.567897074046e+07 1.390276499685e+07  5.417596042413e-03
7.000000000000e-02 -9.331717808832e+07 5.965377192733e-01 6.584443884672e+01 6.823630527239e-05 7.697317767814e-05 1.007903128104e+07 -2.121214081479e+02 2.412660298664e+07 9.967727826330e+06 -6.327676874027e-03 -6.055395227416e-07 1.997587047133e-04 0.000000000000e+00 -1.472445403134e+07 1.410355283888e+07  6.429883964617e-03
8.000000000000e-02 -9.644616749833e+07 5.900015872083e-01 6.688978167670e+01 6.781980279282e-05 8.380951377744e-05 8.804778763006e+06 -2.219299565091e+02 2.341891228512e+07 9.334294217013e+06 -7.291932266568e-03 -6.343053136073e-07 2.059525806993e-04 0.000000000000e+00 -1.385266175505e+07 1.435670142544e+07  7.397059288753e-03
9.000000000000e-02 -9.940042925395e+07 5.839014698215e-01 6.778635897997e+01 6.742120734635e-05 9.009219933840e-05 7.616929089628e+06 -2.608603348221e+02 2.277357819269e+07 8.748093056942e+06 -8.194057423845e-03 -7.534718442190e-07 2.114707817434e-04 0.000000000000e+00 -1.304620011309e+07 1.462391496241e+07  8.301813198876e-03
1.000000000000e-01 -1.021958467132e+08 5.772939128518e-01 6.856670098494e+01 6.705464916720e-05 9.562978234062e-05 6.589346546273e+06 -2.542617130975e+02 2.225125806504e+07 8.251399047814e+06 -8.984113813012e-03 -7.322875784400e-07 2.168007693513e-04 0.000000000000e+00 -1.236400121971e+07 1.490056951646e+07  9.094452593426e-03
2.000000000000e-01 -1.187516715383e+08 5.380454143739e-01 7.279261553079e+01 6.474728572348e-05 1.904535850687e-04 1.034842601093e+06 -2.146064224114e+02 1.953856128501e+07 5.600771874531e+06 -1.323270514004e-02 -6.198915649507e-07 2.502384901496e-04 0.000000000000e+00 -8.724725253546e+06 1.669576726585e+07  1.335958225143e-02
3.000000000000e-01 -1.341076682495e+08 5.086722595976e-01 7.558238944071e+01 6.273649198510e-05 3.002535729358e-04 -3.719039803947e+06 -2.159700701509e+02 1.679334663210e+07 3.213288765280e+06 -1.669979387136e-02 -6.219302773383e-07 2.864989617759e-04 0.000000000000e+00 -5.429198531146e+06 1.807253646614e+07  1.684487078512e-02
4.000000000000e-01 -1.471562405977e+08 4.912841607164e-01 7.759060160320e+01 6.090432566911e-05 4.058456699489e-04 -8.153813886862e+06 -2.371199609874e+02 1.418212340152e+07 9.714080387886e+05 -1.994341745617e-02 -6.804648805491e-07 3.187830121419e-04 0.000000000000e+00 -2.333239184483e+06 1.945105100599e+07  2.010470458669e-02
5.000000000000e-01 -1.578188187449e+08 4.765742241596e-01 7.913407279571e+01 5.935264889280e-05 5.083650455676e-04 -1.152621242633e+07 -2.324437305483e+02 1.227728598255e+07 -7.100796357352e+05 -2.242882791710e-02 -6.594711028301e-07 3.395508883310e-04 0.000000000000e+00 -1.366464016153e+04 2.064300040053e+07  2.260051650491e-02
6.000000000000e-01 -1.664470105045e+08 4.628553684482e-01 8.036202926716e+01 5.810513048536e-05 6.083344443054e-04 -1.386479730118e+07 -2.490002466524e+02 1.101786329438e+07 -1.858187526525e+06 -2.416033895748e-02 -7.025395918191e-07 3.543674777930e-04 0.000000000000e+00 1.568373844442e+06 2.155340067959e+07  2.433945756810e-02
7.000000000000e-01 -1.732705738904e+08 4.540722539412e-01 8.135405474006e+01 5.700006411669e-05 7.058210152123e-04 -1.593732901778e+07 -2.553868987822e+02 9.776499995407e+06 -2.911505097615e+06 -2.565529009807e-02 -7.007042516244e-07 3.684196667223e-04 0.000000000000e+00 3.024111373328e+06 2.226946973942e+07  2.584146973311e-02
8.000000000000e-01 -1.785574945229e+08 4.487369201661e-01 8.216210467788e+01 5.602966107741e-05 8.010236168856e-04 -1.774715147254e+07 -2.419841483883e+02 8.613656373836e+06 -3.853918236916e+06 -2.693847301546e-02 -6.511796898401e-07 3.825071457767e-04 0.000000000000e+00 4.329137778541e+06 2.284025543946e+07  2.713174892664e-02
9.000000000000e-01 -1.825455417321e+08 4.447347592060e-01 8.283348462567e+01 5.517654107332e-05 8.938917265964e-04 -1.917901478783e+07 -2.179384711632e+02 7.679612765438e+06 -4.603605171210e+06 -2.794820780698e-02 -5.536494347071e-07 3.925380404113e-04 0.000000000000e+00 5.367669064536e+06 2.328847228461e+07  2.814652982840e-02
1.000000000000e+00 -1.854867374019e+08 4.417945786223e-01 8.339527917161e+01 5.443094518202e-05 9.846052431860e-04 -2.033236475830e+07 -2.256382300446e+02 6.953112100221e+06 -5.200234934307e+06 -2.877244575185e-02 -5.439927105801e-07 3.989603391078e-04 0.000000000000e+00 6.193162530794e+06 2.367680769080e+07  2.897398608230e-02
2.000000000000e+00 -1.860998072911e+08 4.410419393713e-01 8.535753342327e+01 5.044913609457e-05 1.736116269471e-03 -2.363582578154e+07 -1.304765618572e+02 4.354522098526e+06 -7.060059655053e+06 -3.100969418204e-02 -1.664131213451e-07 4.159205457368e-04 0.000000000000e+00 8.780454446023e+06 2.437732833842e+07  3.121973241676e-02
3.000000000000e+00 -1.774891049769e+08 4.495795701855e-01 8.593561658345e+01 4.783967816864e-05 2.373858498407e-03 -2.413191488174e+07 2.428369949007e+02 3.473686975805e+06 -7.482730597754e+06 -3.123718439325e-02 1.090866443058e-06 4.148839445832e-04 0.000000000000e+00 9.380319501231e+06 2.407600130462e+07  3.144667911488e-02
4.000000000000e+00 -1.655179178190e+08 4.640228359022e-01 8.594181032048e+01 4.591706573297e-05 2.929054977942e-03 -2.356950487143e+07 5.492715031175e+02 3.226771294258e+06 -7.367385611013e+06 -3.069790443257e-02 2.240654111670e-06 4.031096516869e-04 0.000000000000e+00 9.236706396063e+06 2.337504275098e+07  3.090143152942e-02
5.000000000000e+00 -1.531383084912e+08 4.825992387004e-01 8.575846034028e+01 4.436237655391e-05 3.420670414399e-03 -2.274770009474e+07 8.948884737269e+02 3.044545514126e+06 -7.145715746782e+06 -2.993203836710e-02 3.739199016436e-06 3.907875775347e-04 0.000000000000e+00 8.949623442464e+06 2.250003642788e+07  3.012933365425e-02
6.000000000000e+00 -1.414940115436e+08 4.976938466234e-01 8.561855106046e+01 4.313587369284e-05 3.864371460345e-03 -2.122638751299e+07 1.106532808503e+03 3.432601595936e+06 -6.524653766854e+06 -2.868456692922e-02 4.886913338820e-06 3.724636636100e-04 0.000000000000e+00 8.106146561302e+06 2.148666633895e+07  2.887260188537e-02
7.000000000000e+00 -1.312343115127e+08 5.110276230506e-01 8.535781862233e+01 4.210867181713e-05 4.267762247756e-03 -1.967062792913e+07 1.499398350639e+03 4.025683919632e+06 -5.833563564060e+06 -2.748803594741e-02 5.923885137489e-06 3.551753870104e-04 0.000000000000e+00 7.159502524518e+06 2.061776321416e+07  2.766733541353e-02
8.000000000000e+00 -1.218124767845e+08 5.294013430437e-01 8.528219644329e+01 4.109756993377e-05 4.640933650652e-03 -1.865983078130e+07 1.550335857682e+03 4.236173485817e+06 -5.435775349786e+06 -2.667469064624e-02 6.175481199943e-06 3.420619933314e-04 0.000000000000e+00 6.619810881758e+06 1.990790373389e+07  2.684735815204e-02
9.000000000000e+00 -1.135309107159e+08 5.485280278307e-01 8.520333284130e+01 4.016442286331e-05 4.986536730112e-03 -1.781206486691e+07 1.398594704849e+03 4.235775058360e+06 -5.152945565329e+06 -2.593750136882e-02 6.385988652050e-06 3.330791011235e-04 0.000000000000e+00 6.243078457960e+06 1.916388052494e+07  2.610563695697e-02
1.000000000000e+01 -1.060027448602e+08 5.654957290928e-01 8.512020154099e+01 3.934333305499e-05 5.308271177306e-03 -1.677987127900e+07 1.420043076814e+03 4.374197809687e+06 -4.767433177166e+06 -2.505375520559e-02 7.063955808164e-06 3.238461280532e-04 0.000000000000e+00 5.724368882161e+06 1.837610863810e+07  2.521724087863e-02
1.100000000000e+01 -9.920712317928e+07 5.774470269866e-01 8.508991988987e+01 3.868044201447e-05 5.611681687117e-03 -1.538302825241e+07 1.303639309809e+03 4.856593557975e+06 -4.160185063344e+06 -2.393286730037e-02 7.099287292818e-06 3.146213177861e-04 0.000000000000e+00 4.895539919259e+06 1.756269921135e+07  2.409172192349e-02
1.200000000000e+01 -9.310164138531e+07 5.881956835387e-01 8.506072826050e+01 3.806034286227e-05 5.895606113197e-03 -1.404490749244e+07 1.579007486530e+03 5.357790329025e+06 -3.563417541256e+06 -2.289144222582e-02 7.716278349169e-06 3.028915535444e-04 0.000000000000e+00 4.083511568225e+06 1.682132989945e+07  2.304438486037e-02
1.300000000000e+01 -8.749469948919e+07 5.980313935091e-01 8.501131504997e+01 3.746547248238e-05 6.163090489437e-03 -1.279321335384e+07 1.851313017131e+03 5.973274668795e+06 -2.963626969914e+06 -2.197798308835e-02 8.290120890792e-06 2.886424021861e-04 0.000000000000e+00 3.261188551651e+06 1.625838357043e+07  2.212372118520e-02
1.400000000000e+01 -8.219117683119e+07 6.142796177226e-01 8.492254073212e+01 3.684700333022e-05 6.416186817721e-03 -1.198100360641e+07 2.043600307651e+03 6.223283936356e+06 -2.616710125413e+06 -2.136762274250e-02 8.352688633946e-06 2.793342173195e-04 0.000000000000e+00 2.791476598490e+06 1.576755525451e+07  2.150865515898e-02
1.500000000000e+01 -7.715797270225e+07 6.332700015334e-01 8.481756001037e+01 3.626105643962e-05 6.655168820474e-03 -1.129017662632e+07 1.836863061196e+03 6.334094127201e+06 -2.364361877878e+06 -2.074231099296e-02 8.164889418422e-06 2.699971163923e-04 0.000000000000e+00 2.440148125666e+06 1.526348986362e+07  2.087862370759e-02
1.600000000000e+01 -7.243873170816e+07 6.510621195969e-01 8.470075219003e+01 3.574667897407e-05 6.880773897603e-03 -1.048632291512e+07 1.762763670598e+03 6.533658913325e+06 -2.047789253119e+06 -2.004206721245e-02 8.241427585362e-06 2.596582037547e-04 0.000000000000e+00 2.000151084971e+06 1.473991016056e+07  2.017315472271e-02
1.700000000000e+01 -6.798215785607e+07 6.678476487846e-01 8.456897411303e+01 3.528228841092e-05 7.094316820860e-03 -9.588963610639e+06 1.599886292780e+03 6.800146321807e+06 -1.679818154020e+06 -1.927812506801e-02 8.054184917239e-06 2.499209827534e-04 0.000000000000e+00 1.489545147618e+06 1.419625512417e+07  1.940429769942e-02
1.800000000000e+01 -6.374879270820e+07 6.837835260982e-01 8.442126094456e+01 3.486372115288e-05 7.296479139637e-03 -8.619057196502e+06 1.446672333263e+03 7.121668904858e+06 -1.271053978719e+06 -1.846326055715e-02 7.999031839281e-06 2.387772118341e-04 0.000000000000e+00 9.228140901213e+05 1.364187339489e+07  1.858380485231e-02
1.900000000000e+01 -5.970229451246e+07 6.990164963757e-01 8.425635540426e+01 3.448955442508e-05 7.487931059024e-03 -7.570104843940e+06 1.229661475280e+03 7.483803912750e+06 -8.234682464934e+05 -1.758805641515e-02 7.675094353920e-06 2.277282441544e-04 0.000000000000e+00 3.032563925611e+05 1.306039919055e+07  1.770302410727e-02
2.000000000000e+01 -5.591167274559e+07 7.132931210343e-01 8.407728787583e+01 3.415527035903e-05 7.670823036544e-03 -6.484701507455e+06 1.089530393059e+03 7.880142459491e+06 -3.530066043208e+05 -1.668762808235e-02 7.320342761074e-06 2.166145944363e-04 0.000000000000e+00 -3.474781159050e+05 1.248461403507e+07  1.679698774926e-02
2.100000000000e+01 -5.230263645346e+07 7.252707748085e-01 8.398894200474e+01 3.387626585225e-05 7.844163275312e-03 -5.285043063963e+06 8.871049236873e+02 8.374909275243e+06 1.854429719250e+05 -1.571692645496e-02 7.039732366427e-06 2.052717367531e-04 0.000000000000e+00 -1.091769727735e+06 1.190772603046e+07  1.582056582868e-02
2.200000000000e+01 -4.892775349576e+07 7.360609168376e-01 8.389868228381e+01 3.361330121827e-05 8.010119469934e-03 -4.093248034190e+06 7.228941262004e+02 8.874638522018e+06 7.234053181644e+05 -1.475722784160e-02 6.727799250082e-06 1.939448134088e-04 0.000000000000e+00 -1.834931935331e+06 1.135360817385e+07  1.485515438323e-02
2.300000000000e+01 -4.578630731373e+07 7.458698453962e-01 8.379980671317e+01 3.337156648459e-05 8.169555187191e-03 -2.928262242122e+06 7.070443864774e+02 9.395778056204e+06 1.258990544499e+06 -1.383090127976e-02 6.374433547979e-06 1.825016964407e-04 0.000000000000e+00 -2.575502119527e+06 1.085408607815e+07  1.392305361359e-02
2.400000000000e+01 -4.273737162208e+07 7.561677636123e-01 8.368692938956e+01 3.315649169462e-05 8.321438559291e-03 -1.767442398633e+06 6.189439075169e+02 9.929558747615e+06 1.796449195600e+06 -1.291165477061e-02 6.059347662808e-06 1.707992190637e-04 0.000000000000e+00 -3.319521848194e+06 1.038433032011e+07  1.299790029148e-02
2.500000000000e+01 -3.972039199676e+07 7.706768458512e-01 8.355718390763e+01 3.295098007457e-05 8.466390775976e-03 -6.907378583229e+05 4.738492642604e+02 1.038120997918e+07 2.279701137061e+06 -1.203334030694e-02 5.809070925959e-06 1.598745300149e-04 0.000000000000e+00 -3.990057752638e+06 9.925874863398e+06  1.211407300085e-02
2.600000000000e+01 -3.674690137144e+07 7.856724807927e-01 8.341465035837e+01 3.277182110457e-05 8.604867041481e-03 4.364924997171e+05 3.271266870998e+02 1.086772091128e+07 2.789730442048e+06 -1.111663326678e-02 5.522916189112e-06 1.486261879689e-04 0.000000000000e+00 -4.697981284349e+06 9.476343853264e+06  1.119169063480e-02
2.700000000000e+01 -3.382536400471e+07 8.010888143274e-01 8.325927508362e+01 3.261753124329e-05 8.737057870925e-03 1.610995904361e+06 1.760001616566e+02 1.138535497156e+07 3.324405804393e+06 -1.016346057386e-02 5.227495069393e-06 1.370239528648e-04 0.000000000000e+00 -5.440252226773e+06 9.040264662102e+06  1.023266465408e-02
2.800000000000e+01 -3.094423886445e+07 8.170103714323e-01 8.309101773899e+01 3.248771346190e-05 8.863242329428e-03 2.837670953062e+06 2.944402511655e+01 1.193538892960e+07 3.885690809552e+06 -9.169460541444e-03 4.951814160066e-06 1.250433151409e-04 0.000000000000e+00 -6.219583564070e+06 8.621614055072e+06  9.232621283109e-03
2.900000000000e+01 -2.809010080804e+07 8.334582007690e-01 8.290988114144e+01 3.237972010320e-05 8.983639016236e-03 4.126332347063e+06 -1.267951527611e+02 1.252475446577e+07 4.478882232745e+06 -8.127092529523e-03 4.652808054334e-06 1.126278276689e-04 0.000000000000e+00 -7.043323015192e+06 8.227813974333e+06  8.183991674833e-03
3.000000000000e+01 -2.525050293831e+07 8.504808551470e-01 8.271590707982e+01 3.230116541009e-05 9.098245371264e-03 5.489996125219e+06 -2.751208855797e+02 1.315955698343e+07 5.110067648432e+06 -7.026454275319e-03 4.383993143024e-06 9.978375907207e-05 0.000000000000e+00 -7.919873585694e+06 7.866409232098e+06  7.076877854001e-03
3.100000000000e+01 -2.240930200359e+07 8.681657928440e-01 8.259379673141e+01 3.224794753451e-05 9.208947959165e-03 6.938781206257e+06 -4.482405781237e+02 1.384590657103e+07 5.784277163766e+06 -5.858696886388e-03 4.043417941118e-06 8.643265173693e-05 0.000000000000e+00 -8.856321647017e+06 7.550865191961e+06  5.902392020626e-03
3.200000000000e+01 -1.960626311165e+07 8.861326011886e-01 8.247041856742e+01 3.221243370558e-05 9.315707351741e-03 8.448816338428e+06 -6.214887013879e+02 1.456906827306e+07 6.489525189567e+06 -4.643591200912e-03 3.680541978763e-06 7.285366491643e-05 0.000000000000e+00 -9.835803267017e+06 7.299839871694e+06  4.680447646776e-03
3.300000000000e+01 -1.677025423043e+07 9.047373427702e-01 8.234022744185e+01 3.220479250798e-05 9.418549411542e-03 1.007271634194e+07 -7.879073087119e+02 1.536270135964e+07 7.253020962904e+06 -3.340725624548e-03 3.313685179779e-06 5.864975505503e-05 0.000000000000e+00 -1.089614622149e+07 7.130972702939e+06  3.370438127809e-03
3.400000000000e+01 -1.387183897453e+07 9.239741181844e-01 8.220176805925e+01 3.223276212086e-05 9.517285734649e-03 1.184308348991e+07 -8.738043516946e+02 1.624818483710e+07 8.091886094384e+06 -1.926383614203e-03 3.124053959011e-06 4.374596867618e-05 0.000000000000e+00 -1.206105147380e+07 7.071124858921e+06  1.948632426917e-03
3.500000000000e+01 -1.087324667103e+07 9.437517590390e-01 8.205443775994e+01 3.229460460208e-05 9.612472021789e-03 1.379178059958e+07 -1.022094994818e+03 1.724617032492e+07 9.022825445982e+06 -3.776094572439e-04 2.679841710919e-06 2.791229683677e-05 0.000000000000e+00 -1.335359212349e+07 7.151893067492e+06  3.923384896088e-04
3.600000000000e+01 -7.735474268512e+06 9.636979323476e-01 8.189801261951e+01 3.239072698090e-05 9.703677683806e-03 1.595584065280e+07 -1.079524074533e+03 1.837939796108e+07 1.006501205560e+07 1.331010384959e-03 2.313205424056e-06 1.104799094320e-05 0.000000000000e+00 -1.480008355649e+07 7.406230875604e+06  1.325526976357e-03
3.700000000000e+01 -4.373860178372e+06 9.829980795009e-01 8.173236980522e+01 3.249696201961e-05 9.787478217923e-03 1.838702844022e+07 -2.689748947402e+02 1.967300784634e+07 1.124348848954e+07 3.236337951146e-03 4.382131206909e-06 -7.391974871025e-06 0.000000000000e+00 -1.643450825870e+07 7.865770880231e+06  3.240049152922e-03
3.800000000000e+01 1.969319373481e+06 1.000000000000e+00 8.155815856454e+01 3.188788472159e-05 9.777765655378e-03 2.252999221654e+07 3.721128629461e+03 2.166522989919e+07 1.319805201636e+07 6.477088250711e-03 2.556518724315e-05 -4.368138334391e-05 0.000000000000e+00 -1.913109137736e+07 8.931016351616e+06  6.499189886592e-03
3.900000000000e+01 2.143157947788e+06 1.000000000000e+00 8.137922573310e+01 3.185327910931e-05 9.968735842252e-03 2.259970915378e+07 -2.725070378774e+02 2.164555072832e+07 1.321554577002e+07 6.533978874279e-03 -1.056920351425e-06 -4.368855175651e-05 0.000000000000e+00 -1.915360188404e+07 8.945331876362e+06  6.555932583893e-03
4.000000000000e+01 2.172544101843e+06 1.000000000000e+00 8.118933133057e+01 3.181859077923e-05 1.004368165164e-02 2.259606173927e+07 -2.744357130053e+02 2.163919424902e+07 1.321272742420e+07 6.531861193572e-03 -1.061056154653e-06 -4.387748822872e-05 0.000000000000e+00 -1.914932780417e+07 8.943374694829e+06  6.553910353844e-03
4.200000000000e+01 2.229827605392e+06 1.000000000000e+00 8.091450153903e+01 3.175111522073e-05 1.018402679672e-02 2.258869313816e+07 -2.735819719580e+02 2.162611179028e+07 1.320683267842e+07 6.528236514743e-03 -1.060263861036e-06 -4.423953833951e-05 0.000000000000e+00 -1.914054586896e+07 8.939522631266e+06  6.550468584096e-03
4.400000000000e+01 2.285593809494e+06 1.000000000000e+00 8.061916116606e+01 3.168646635683e-05 1.031486054318e-02 2.258203700625e+07 -2.704490083958e+02 2.161354545248e+07 1.320134552687e+07 6.524850757198e-03 -1.050706534254e-06 -4.457956359130e-05 0.000000000000e+00 -1.913230932853e+07 8.935895493698e+06  6.547254619488e-03
5.000000000000e+01 2.437116678573e+06 1.000000000000e+00 7.942409543210e+01 3.152364061867e-05 1.058856937285e-02 2.256996931460e+07 -2.746074185984e+02 2.158097008117e+07 1.318931924889e+07 6.516809641866e-03 -1.063350145704e-06 -4.532976831524e-05 0.000000000000e+00 -1.911341954822e+07 8.927332168190e+06  6.539592614191e-03
6.500000000000e+01 2.768502507756e+06 1.000000000000e+00 7.676123224804e+01 3.119223617246e-05 1.105293032293e-02 2.255512896824e+07 -2.851006261908e+02 2.151153896561e+07 1.316738475790e+07 6.506506548655e-03 -1.095280039551e-06 -4.670124511161e-05 0.000000000000e+00 -1.907801756392e+07 8.911894618486e+06  6.529982697530e-03
8.000000000000e+01 3.023556374630e+06 1.000000000000e+00 7.431444500797e+01 3.095787723757e-05 1.127326704221e-02 2.255293662853e+07 -2.704248853701e+02 2.145943236444e+07 1.315436756115e+07 6.501806366689e-03 -1.050728914774e-06 -4.747836680591e-05 0.000000000000e+00 -1.905557885138e+07 8.902329861210e+06  6.525675343204e-03
1.000000000000e+02 3.324236305531e+06 1.000000000000e+00 7.184336417689e+01 3.068786109183e-05 1.145775381373e-02 2.255089565794e+07 -2.713234577154e+02 2.139374121179e+07 1.313744817211e+07 6.499510997693e-03 -1.053566060226e-06 -4.826596668751e-05 0.000000000000e+00 -1.902736168061e+07 8.891523355965e+06  6.523778147973e-03
1.860000000000e+02 3.922717201764e+06 1.000000000000e+00 6.661921361739e+01 3.017838744844e-05 1.167707066751e-02 2.256140158618e+07 -2.666805854639e+02 2.126795389272e+07 1.311036132103e+07 6.502426090307e-03 -1.038191102185e-06 -4.956757406999e-05 0.000000000000e+00 -1.897990559997e+07 8.875288333953e+06  6.527351279401e-03
2.720000000000e+02 4.213038211969e+06 1.000000000000e+00 6.336129275053e+01 2.996826847708e-05 1.150899295185e-02 2.258104246027e+07 -2.714654346785e+02 2.120603600868e+07 1.310252628006e+07 6.508161231337e-03 -1.056844645305e-06 -4.961786266489e-05 0.000000000000e+00 -1.896320158300e+07 8.871295905464e+06  6.533111735330e-03
3.580000000000e+02 4.354403691727e+06 1.000000000000e+00 6.123180505088e+01 2.988487962698e-05 1.133309454717e-02 2.260048210473e+07 -2.688214709320e+02 2.117983264738e+07 1.310373724500e+07 6.513616721268e-03 -1.048493201227e-06 -4.943169745393e-05 0.000000000000e+00 -1.896135066570e+07 8.872139685373e+06  6.538472964952e-03
4.440000000000e+02 4.426532453839e+06 1.000000000000e+00 5.967385339351e+01 2.985708152176e-05 1.116850101644e-02 2.261801099702e+07 -2.674932471425e+02 2.116946959277e+07 1.310827849626e+07 6.518069055574e-03 -1.042089455282e-06 -4.916424507038e-05 0.000000000000e+00 -1.896525302868e+07 8.874572856196e+06  6.542789965948e-03
5.300000000000e+02 4.465496889446e+06 1.000000000000e+00 5.850929423872e+01 2.985240785205e-05 1.102586480912e-02 2.263274782478e+07 -2.730298482572e+02 2.116584893188e+07 1.311341249193e+07 6.521651585883e-03 -1.058670139235e-06 -4.889668387357e-05 0.000000000000e+00 -1.897066974953e+07 8.877253815449e+06  6.546237147524e-03
6.160000000000e+02 4.488012314786e+06 1.000000000000e+00 5.764205143038e+01 2.985626033153e-05 1.090763549903e-02 2.264450510944e+07 -2.699932793645e+02 2.116483199412e+07 1.311798138704e+07 6.524475634123e-03 -1.050054392264e-06 -4.866109662830e-05 0.000000000000e+00 -1.897577283020e+07 8.879636588612e+06  6.548942025221e-03
7.020000000000e+02 4.501822576458e+06 1.000000000000e+00 5.701255823050e+01 2.986193391343e-05 1.081695516914e-02 2.265334671377e+07 -2.738605359548e+02 2.116473814267e+07 1.312158604475e+07 6.526586813597e-03 -1.061257969826e-06 -4.847529807700e-05 0.000000000000e+00 -1.897989030040e+07 8.881517692646e+06  6.550959235865e-03
7.880000000000e+02 4.511441113274e+06 1.000000000000e+00 5.653877440105e+01 2.986806960679e-05 1.073521679374e-02 2.266023093796e+07 -2.646124795862e+02 2.116438483752e+07 1.312428779143e+07 6.528273281620e-03 -1.033693613722e-06 -4.830680032711e-05 0.000000000000e+00 -1.898296785564e+07 8.882987340442e+06  6.552560475565e-03
8.740000000000e+02 4.519827167133e+06 1.000000000000e+00 5.574293709857e+01 2.988384205586e-05 1.061973174635e-02 2.267213323960e+07 -2.864413747925e+02 2.116716365790e+07 1.312993134225e+07 6.530930374554e-03 -1.099586549405e-06 -4.805533680731e-05 0.000000000000e+00 -1.898974274658e+07 8.885821691878e+06  6.555090431012e-03
9.370000000000e+02 4.525201002277e+06 1.000000000000e+00 5.522755768206e+01 2.989626199735e-05 1.052476640936e-02 2.268047442576e+07 -2.814917873622e+02 2.116849505411e+07 1.313365231165e+07 6.533053454998e-03 -1.084494023368e-06 -4.785347087726e-05 0.000000000000e+00 -1.899420726384e+07 8.887817293078e+06  6.557111422887e-03
1.000000000000e+03 4.529391016053e+06 1.000000000000e+00 5.483601678884e+01 2.990669056169e-05 1.044523833430e-02 2.268728505568e+07 -2.677343601502e+02 2.116949949636e+07 1.313663178652e+07 6.534983702535e-03 -1.042638751537e-06 -4.768731099704e-05 0.000000000000e+00 -1.899780544619e+07 8.889477345310e+06  6.558957625530e-03
1.100000000000e+03 4.533536316160e+06 1.000000000000e+00 5.445290493107e+01 2.991759911270e-05 1.036206736529e-02 2.269425299114e+07 -2.686630092472e+02 2.117044768554e+07 1.313963601619e+07 6.537075399679e-03 -1.045778068247e-06 -4.751505776557e-05 0.000000000000e+00 -1.900144556429e+07 8.891192964073e+06  6.560962220436e-03
1.200000000000e+03 4.536797682875e+06 1.000000000000e+00 5.411538590813e+01 2.992698744070e-05 1.029293984803e-02 2.270017849845e+07 -2.640479980484e+02 2.117142175910e+07 1.314225394217e+07 6.538756573715e-03 -1.031365597432e-06 -4.737027576298e-05 0.000000000000e+00 -1.900461806657e+07 8.892653013653e+06  6.562570179930e-03
1.300000000000e+03 4.539703052078e+06 1.000000000000e+00 5.378897452189e+01 2.993613712535e-05 1.022715457192e-02 2.270585583665e+07 -2.658902557203e+02 2.117243963018e+07 1.314479061490e+07 6.540334272013e-03 -1.035926893338e-06 -4.723180096962e-05 0.000000000000e+00 -1.900769536058e+07 8.894056514704e+06  6.564077865072e-03
1.400000000000e+03 4.542442562525e+06 1.000000000000e+00 5.345626141554e+01 2.994576952914e-05 1.015918128323e-02 2.271169381030e+07 -2.674628887891e+02 2.117353407027e+07 1.314740950799e+07 6.541963413725e-03 -1.041740617868e-06 -4.708866319936e-05 0.000000000000e+00 -1.901087912952e+07 8.895508572304e+06  6.565634639259e-03
1.500000000000e+03 4.545082446453e+06 1.000000000000e+00 5.310717610983e+01 2.995634744632e-05 1.008580615949e-02 2.271792987673e+07 -2.737526278676e+02 2.117473424451e+07 1.315020850242e+07 6.543732570186e-03 -1.060938922116e-06 -4.693442001448e-05 0.000000000000e+00 -1.901429087456e+07 8.897071397118e+06  6.567325822554e-03
1.600000000000e+03 4.547643486992e+06 1.000000000000e+00 5.273557656599e+01 2.996816912853e-05 1.000502728036e-02 2.272471062486e+07 -2.682599708456e+02 2.117606512248e+07 1.315324997592e+07 6.545695602531e-03 -1.044149751491e-06 -4.676505267442e-05 0.000000000000e+00 -1.901800857442e+07 8.898784331413e+06  6.569203221209e-03
1.700000000000e+03 4.550130771773e+06 1.000000000000e+00 5.233767154458e+01 2.998142471796e-05 9.915646880584e-03 2.273212677768e+07 -2.641544003162e+02 2.117754305206e+07 1.315657276680e+07 6.547885318723e-03 -1.031388554779e-06 -4.657808174337e-05 0.000000000000e+00 -1.902208086551e+07 8.900672163132e+06  6.571298410037e-03
1.800000000000e+03 4.552544175197e+06 1.000000000000e+00 5.191117283657e+01 2.999623424900e-05 9.816939243437e-03 2.274023323766e+07 -2.670616492116e+02 2.117917954847e+07 1.316020086118e+07 6.550321680309e-03 -1.040490803774e-06 -4.637199467853e-05 0.000000000000e+00 -1.902653788244e+07 8.902750377548e+06  6.573630595598e-03
1.900000000000e+03 4.554883463306e+06 1.000000000000e+00 5.145479370212e+01 3.001266382080e-05 9.708462174406e-03 2.274906089992e+07 -2.641478207762e+02 2.118098079172e+07 1.316414765466e+07 6.553015643423e-03 -1.031227086378e-06 -4.614594061350e-05 0.000000000000e+00 -1.903139644876e+07 8.905028105262e+06  6.576210286464e-03
2.000000000000e+03 4.557147803229e+06 1.000000000000e+00 5.096793195623e+01 3.003074637339e-05 9.590047297496e-03 2.275862416985e+07 -2.663237638909e+02 2.118294920830e+07 1.316841927371e+07 6.555972666028e-03 -1.038918643463e-06 -4.589951766495e-05 0.000000000000e+00 -1.903666421729e+07 8.907510090718e+06  6.579042755955e-03