 TITLE = "Time curves in points"
 VARIABLES = "TIME"  "PRESSURE1"  "SATURATION1"  "TEMPERATURE1"  "DISPLACEMENT_X1"  "DISPLACEMENT_Y1"  "STRESS_XX"  "STRESS_XY"  "STRESS_YY"  "STRESS_ZZ"  "STRAIN_XX"  "STRAIN_XY"  "STRAIN_YY"  "STRAIN_PLS"  p_(1st_Invariant)  q_(2nd_Invariant)   Effective_Strain
 ZONE T="POINT=POINT10"
0.000000000000e+00 1.000000000000e+05 1.000000000000e+00 2.500000000000e+01 0.000000000000e+00 0.000000000000e+00 -3.864302542005e+07 -1.960132696367e+04 -1.523974570659e+07 -1.317212244625e+07 0.000000000000e+00 0.000000000000e+00 0.000000000000e+00 0.000000000000e+00 2.235163119096e+07 2.450263017377e+07  0.000000000000e+00
1.000000000000e-03 1.740556493452e+05 1.000000000000e+00 2.500000172592e+01 0.000000000000e+00 -7.463223700440e-04 -4.769488359112e+07 1.334210609171e+05 -5.614345158646e+06 -1.300005999471e+07 -3.426027659828e-04 1.136737738543e-05 3.511239864378e-04 0.000000000000e+00 2.210309624816e+07 3.891759300027e+07  6.011226246560e-04
2.000000000000e-03 1.919872821709e+05 1.000000000000e+00 2.500001824656e+01 0.000000000000e+00 -7.464081669858e-04 -4.768466527042e+07 1.333596471283e+05 -5.611232214838e+06 -1.299606382820e+07 -3.423716573987e-04 1.136281521826e-05 3.510911810233e-04 0.000000000000e+00 2.209732043782e+07 3.891089362782e+07  6.008946491993e-04
3.000000000000e-03 2.043974553683e+05 1.000000000000e+00 2.500009863918e+01 0.000000000000e+00 -7.463993947216e-04 -4.767585124471e+07 1.332780804190e+05 -5.611193592590e+06 -1.299342603477e+07 -3.421422544858e-04 1.135675597700e-05 3.509946403791e-04 0.000000000000e+00 2.209349029069e+07 3.890314881822e+07  6.006126748331e-04
4.000000000000e-03 2.129490391603e+05 1.000000000000e+00 2.500036369792e+01 0.000000000000e+00 -7.464189029955e-04 -4.766783154455e+07 1.331662038926e+05 -5.614038052191e+06 -1.299193856024e+07 -3.418996289620e-04 1.134844514932e-05 3.508337399688e-04 0.000000000000e+00 2.209126938566e+07 3.889395143651e+07  6.002632393621e-04
1.000000000000e-02 2.251212524620e+05 1.000000000000e+00 2.505975533665e+01 0.000000000000e+00 -7.436725029518e-04 -4.762403796224e+07 1.314619726412e+05 -5.687960829147e+06 -1.301961321885e+07 -3.392450942995e-04 1.122184511350e-05 3.491159527158e-04 0.000000000000e+00 2.211053733675e+07 3.879405622901e+07  5.964753525257e-04
2.000000000000e-02 2.216418512292e+05 1.000000000000e+00 2.535516199181e+01 0.000000000000e+00 -7.314544233668e-04 -4.759529948559e+07 1.282498179746e+05 -5.872088505956e+06 -1.316243431952e+07 -3.328728814274e-04 1.098322790970e-05 3.475817084593e-04 0.000000000000e+00 2.220994077036e+07 3.859855158016e+07  5.896438060028e-04
3.000000000000e-02 2.108105924977e+05 1.000000000000e+00 2.578817616421e+01 0.000000000000e+00 -7.152342249469e-04 -4.761579606482e+07 1.255655668816e+05 -6.074025233542e+06 -1.337251291930e+07 -3.258312635210e-04 1.078382639993e-05 3.478841208551e-04 0.000000000000e+00 2.235411140589e+07 3.841668704580e+07  5.838576617836e-04
4.000000000000e-02 1.971063612204e+05 1.000000000000e+00 2.629413956495e+01 0.000000000000e+00 -6.963118349696e-04 -4.767191826267e+07 1.234781507743e+05 -6.273341861480e+06 -1.361842764397e+07 -3.187818268110e-04 1.062876120339e-05 3.496149073050e-04 0.000000000000e+00 2.252122925604e+07 3.825914346688e+07  5.793463791550e-04
5.000000000000e-02 1.826230794996e+05 1.000000000000e+00 2.682741827884e+01 0.000000000000e+00 -6.769671058080e-04 -4.775127812996e+07 1.218842295030e+05 -6.463184060184e+06 -1.387896340060e+07 -3.120524366356e-04 1.051035562324e-05 3.522406680279e-04 0.000000000000e+00 2.269780853025e+07 3.812560383036e+07  5.759333059384e-04
6.000000000000e-02 1.679700587294e+05 1.000000000000e+00 2.736069166866e+01 0.000000000000e+00 -6.558511833075e-04 -4.784134512102e+07 1.206265749771e+05 -6.638028008133e+06 -1.413922873667e+07 -3.057307838206e-04 1.041692985845e-05 3.554134624438e-04 0.000000000000e+00 2.287286728861e+07 3.801250653984e+07  5.733902817438e-04
7.000000000000e-02 1.540237250648e+05 1.000000000000e+00 2.787915885942e+01 0.000000000000e+00 -6.357930871386e-04 -4.793843782051e+07 1.196384764801e+05 -6.800752744556e+06 -1.439371465606e+07 -2.998847499388e-04 1.034352825582e-05 3.588217349542e-04 0.000000000000e+00 2.304430174038e+07 3.791633247275e+07  5.714980601114e-04
8.000000000000e-02 1.413932903401e+05 1.000000000000e+00 2.837560709376e+01 0.000000000000e+00 -6.157755841320e-04 -4.803661280301e+07 1.188269466311e+05 -6.951170320315e+06 -1.463791909442e+07 -2.944607987209e-04 1.028324318133e-05 3.623052469936e-04 0.000000000000e+00 2.320856740591e+07 3.783290334626e+07  5.700650679212e-04
9.000000000000e-02 1.310031976692e+05 1.000000000000e+00 2.884715694862e+01 0.000000000000e+00 -5.973780982388e-04 -4.813482708465e+07 1.181594511287e+05 -7.092556945122e+06 -1.487136650317e+07 -2.894378539999e-04 1.023365780114e-05 3.657246475400e-04 0.000000000000e+00 2.336625017765e+07 3.775923328232e+07  5.689442235766e-04
1.000000000000e-01 1.238685360237e+05 1.000000000000e+00 2.929330687699e+01 0.000000000000e+00 -5.805675076815e-04 -4.823177616423e+07 1.176037542359e+05 -7.225743497177e+06 -1.509361903284e+07 -2.847837258534e-04 1.019237746054e-05 3.690328124229e-04 0.000000000000e+00 2.351704623141e+07 3.769362427824e+07  5.680608947240e-04
2.000000000000e-01 1.428891028095e+05 1.000000000000e+00 3.225454121656e+01 0.000000000000e+00 -4.042602455381e-04 -4.889169232306e+07 1.143711888037e+05 -8.021208341746e+06 -1.655462503672e+07 -2.550289601804e-04 9.952244028431e-06 3.937529126257e-04 0.000000000000e+00 2.448917523384e+07 3.734287125176e+07  5.663891454561e-04
3.000000000000e-01 1.713800732617e+05 1.000000000000e+00 3.436326462038e+01 0.000000000000e+00 -2.282882071309e-04 -4.933220179475e+07 1.114807725825e+05 -8.574063585941e+06 -1.758497738369e+07 -2.331205105272e-04 9.737527394860e-06 4.114885193003e-04 0.000000000000e+00 2.516374758813e+07 3.708357603644e+07  5.655783287566e-04
4.000000000000e-01 2.004499500393e+05 1.000000000000e+00 3.595952370194e+01 0.000000000000e+00 -6.840943838976e-05 -4.966046738371e+07 1.088895951494e+05 -9.002132224400e+06 -1.836750277464e+07 -2.162480035960e-04 9.545039928396e-06 4.246540558214e-04 0.000000000000e+00 2.567670079425e+07 3.687906695646e+07  5.649762661713e-04
5.000000000000e-01 2.280816430072e+05 1.000000000000e+00 3.722620623794e+01 0.000000000000e+00 8.094164868673e-05 -4.991441864455e+07 1.064305626585e+05 -9.351735911559e+06 -1.899009521520e+07 -2.025556169205e-04 9.362368943362e-06 4.347936380907e-04 0.000000000000e+00 2.608541659043e+07 3.670565995125e+07  5.642757669114e-04
6.000000000000e-01 2.537953010687e+05 1.000000000000e+00 3.826753036624e+01 0.000000000000e+00 2.224501839523e-04 -5.011889169508e+07 1.040572037357e+05 -9.647792604162e+06 -1.950356756850e+07 -1.910784999604e-04 9.186062280526e-06 4.428690769166e-04 0.000000000000e+00 2.642341728925e+07 3.655413246515e+07  5.634890616089e-04
7.000000000000e-01 2.776764008976e+05 1.000000000000e+00 3.914695254531e+01 0.000000000000e+00 3.575173284652e-04 -5.029082877674e+07 1.017824012449e+05 -9.903470938685e+06 -1.993888393595e+07 -1.812958407741e-04 9.017076952635e-06 4.495413467109e-04 0.000000000000e+00 2.671106121712e+07 3.642218349252e+07  5.627606096109e-04
8.000000000000e-01 2.999809238883e+05 1.000000000000e+00 3.990525898690e+01 0.000000000000e+00 4.867672323838e-04 -5.044482850662e+07 9.967819803785e+04 -1.012316546460e+07 -2.031587344188e+07 -1.730133633782e-04 8.860764714398e-06 4.553837316827e-04 0.000000000000e+00 2.696128913770e+07 3.631488230834e+07  5.624330871214e-04
9.000000000000e-01 3.207460630723e+05 1.000000000000e+00 4.056995234148e+01 0.000000000000e+00 6.111405957185e-04 -5.058250047808e+07 9.767800537091e+04 -1.031776045400e+07 -2.064783020912e+07 -1.657970709634e-04 8.712178973426e-06 4.604857405741e-04 0.000000000000e+00 2.718269704707e+07 3.622224013241e+07  5.622372090205e-04
1.000000000000e+00 3.401334782958e+05 1.000000000000e+00 4.116038129953e+01 0.000000000000e+00 7.312508515076e-04 -5.070781102261e+07 9.574295261096e+04 -1.049388634016e+07 -2.094465742312e+07 -1.594264518113e-04 8.568432196972e-06 4.649689327513e-04 0.000000000000e+00 2.738211826196e+07 3.614054971261e+07  5.621045304950e-04
2.000000000000e+00 4.703570408685e+05 1.000000000000e+00 4.447003652479e+01 0.000000000000e+00 1.693953492239e-03 -5.152829863315e+07 7.965944678249e+04 -1.161331338557e+07 -2.268530777559e+07 -1.252489785397e-04 7.373657478286e-06 4.880429412990e-04 0.000000000000e+00 2.860897326477e+07 3.569139463835e+07  5.613939895760e-04
3.000000000000e+00 5.717447673184e+05 1.000000000000e+00 4.667318170723e+01 0.000000000000e+00 2.503949889212e-03 -5.213585788610e+07 6.565916394877e+04 -1.245177742999e+07 -2.389144297659e+07 -1.030161576121e-04 6.333636467781e-06 5.016992985435e-04 0.000000000000e+00 2.949302609756e+07 3.537983203606e+07  5.604623035973e-04
4.000000000000e+00 6.568112850363e+05 1.000000000000e+00 4.832475591194e+01 0.000000000000e+00 3.204563263373e-03 -5.262363922859e+07 5.341434862961e+04 -1.313006951575e+07 -2.482083002319e+07 -8.661366003125e-05 5.424021615500e-06 5.110256828030e-04 0.000000000000e+00 3.019151292251e+07 3.513850628707e+07  5.594633494495e-04
5.000000000000e+00 7.317512071599e+05 1.000000000000e+00 4.967044162440e+01 0.000000000000e+00 3.822933938948e-03 -5.303786101078e+07 4.265666270543e+04 -1.370343068069e+07 -2.558960346581e+07 -7.344459835784e-05 4.624879232561e-06 5.182838531173e-04 0.000000000000e+00 3.077696505243e+07 3.494206828932e+07  5.586963212527e-04
6.000000000000e+00 7.997800013963e+05 1.000000000000e+00 5.084293982023e+01 0.000000000000e+00 4.379361505786e-03 -5.339935737148e+07 3.298536021945e+04 -1.421347626505e+07 -2.626275878278e+07 -6.186869426795e-05 3.906439619318e-06 5.243422146141e-04 0.000000000000e+00 3.129186413977e+07 3.476434954409e+07  5.578966233417e-04
7.000000000000e+00 8.629951366268e+05 1.000000000000e+00 5.184536474140e+01 0.000000000000e+00 4.881884599904e-03 -5.371568719251e+07 2.436594267497e+04 -1.465726536084e+07 -2.684307323186e+07 -5.206355094021e-05 3.266140030298e-06 5.294131563079e-04 0.000000000000e+00 3.173867526174e+07 3.461354628410e+07  5.573006686272e-04
8.000000000000e+00 9.220627554716e+05 1.000000000000e+00 5.278385773881e+01 0.000000000000e+00 5.344481798515e-03 -5.401137591711e+07 1.652017675420e+04 -1.506543668805e+07 -2.738379231999e+07 -4.296242315215e-05 2.683311704756e-06 5.343363588560e-04 0.000000000000e+00 3.215353497505e+07 3.447867394222e+07  5.570808733375e-04
9.000000000000e+00 9.780127718571e+05 1.000000000000e+00 5.364114742402e+01 0.000000000000e+00 5.772399035873e-03 -5.428180370255e+07 9.354743224957e+03 -1.543680678811e+07 -2.787743111394e+07 -3.467172855065e-05 2.151022356869e-06 5.388777674860e-04 0.000000000000e+00 3.253201386820e+07 3.435763623829e+07  5.570359785680e-04
1.000000000000e+01 1.031340330051e+06 1.000000000000e+00 5.442243051270e+01 0.000000000000e+00 6.170159701660e-03 -5.452624904666e+07 2.725434435661e+03 -1.577802278042e+07 -2.832761042324e+07 -2.703018127191e-05 1.658559418236e-06 5.429249764027e-04 0.000000000000e+00 3.287729408344e+07 3.424387462797e+07  5.569396499521e-04
1.100000000000e+01 1.082341139184e+06 1.000000000000e+00 5.515238823689e+01 0.000000000000e+00 6.542221105612e-03 -5.475686460590e+07 -3.389652155408e+03 -1.609203951993e+07 -2.874741593470e+07 -2.000312590379e-05 1.204295842899e-06 5.468542736467e-04 0.000000000000e+00 3.319877335351e+07 3.414395071053e+07  5.571291300263e-04
1.200000000000e+01 1.131402584251e+06 1.000000000000e+00 5.582499665260e+01 0.000000000000e+00 6.890941281876e-03 -5.497173011424e+07 -9.032666492939e+03 -1.637871688941e+07 -2.913421845601e+07 -1.361689399355e-05 7.851004921112e-07 5.505732078576e-04 0.000000000000e+00 3.349488848655e+07 3.405657783903e+07  5.575080476263e-04
1.300000000000e+01 1.178781261317e+06 1.000000000000e+00 5.644284948980e+01 0.000000000000e+00 7.218599920057e-03 -5.516976924197e+07 -1.430879904588e+04 -1.664351926827e+07 -2.949025006360e+07 -7.748601884086e-06 3.931592167496e-07 5.539617220676e-04 0.000000000000e+00 3.376784619128e+07 3.397608984893e+07  5.578767990453e-04
1.400000000000e+01 1.225190016569e+06 1.000000000000e+00 5.700989935187e+01 0.000000000000e+00 7.527090078890e-03 -5.535271800634e+07 -1.924086757144e+04 -1.688703999891e+07 -2.981759350327e+07 -2.385371087426e-06 2.677698342233e-08 5.570751369744e-04 0.000000000000e+00 3.401911716950e+07 3.390318866385e+07  5.582716465186e-04
1.500000000000e+01 1.270176166401e+06 1.000000000000e+00 5.752995961244e+01 0.000000000000e+00 7.817553976169e-03 -5.552226587610e+07 -2.383641520624e+04 -1.711015863203e+07 -3.011835393545e+07 2.488238373632e-06 -3.146065551625e-07 5.599589752253e-04 0.000000000000e+00 3.425025948119e+07 3.383833092012e+07  5.587192772650e-04
1.600000000000e+01 1.313882139218e+06 1.000000000000e+00 5.800653177233e+01 0.000000000000e+00 8.091482495068e-03 -5.567744363185e+07 -2.816000473570e+04 -1.731672987137e+07 -3.039462181637e+07 6.985871594531e-06 -6.357874916368e-07 5.625477076267e-04 0.000000000000e+00 3.446293177320e+07 3.377722202022e+07  5.590885908189e-04
1.700000000000e+01 1.356439511411e+06 1.000000000000e+00 5.844268502279e+01 0.000000000000e+00 8.350185203236e-03 -5.581708027878e+07 -3.226464131036e+04 -1.751001481552e+07 -3.064809798851e+07 1.121419681662e-05 -9.407033514690e-07 5.647833818095e-04 0.000000000000e+00 3.465839769427e+07 3.371590432895e+07  5.592629876404e-04
1.800000000000e+01 1.397980729683e+06 1.000000000000e+00 5.884111306209e+01 0.000000000000e+00 8.594693616245e-03 -5.594172737473e+07 -3.617597352452e+04 -1.769149014398e+07 -3.088033338178e+07 1.521033357417e-05 -1.231259458807e-06 5.666687556450e-04 0.000000000000e+00 3.483785030016e+07 3.365343634189e+07  5.592228179106e-04
1.900000000000e+01 1.438594000250e+06 1.000000000000e+00 5.920419819884e+01 0.000000000000e+00 8.825873065352e-03 -5.605219490775e+07 -3.990636477775e+04 -1.786188790862e+07 -3.109262403238e+07 1.899233508450e-05 -1.508374237618e-06 5.682247771238e-04 0.000000000000e+00 3.500223561625e+07 3.358974293184e+07  5.589767583160e-04
2.000000000000e+01 1.478362918167e+06 1.000000000000e+00 5.953402869113e+01 0.000000000000e+00 9.044082286391e-03 -5.615354661004e+07 -4.338859424239e+04 -1.801687634330e+07 -3.128592030068e+07 2.240741896466e-05 -1.767054140705e-06 5.696476395152e-04 0.000000000000e+00 3.515211441801e+07 3.353269509195e+07  5.587893697540e-04
2.100000000000e+01 1.517212675877e+06 1.000000000000e+00 5.986399766050e+01 0.000000000000e+00 9.252883356137e-03 -5.625267858298e+07 -4.672652337360e+04 -1.816805437552e+07 -3.147729203308e+07 2.583346717307e-05 -2.015014590452e-06 5.711405483791e-04 0.000000000000e+00 3.529934166386e+07 3.347691209591e+07  5.586828566124e-04
2.200000000000e+01 1.555294290415e+06 1.000000000000e+00 6.017680088547e+01 0.000000000000e+00 9.452522468071e-03 -5.634417424846e+07 -4.993441782793e+04 -1.831280031155e+07 -3.165841915173e+07 2.916263543370e-05 -2.253315321345e-06 5.724918494479e-04 0.000000000000e+00 3.543846457058e+07 3.342074513778e+07  5.584955131291e-04
2.300000000000e+01 1.592676885308e+06 1.000000000000e+00 6.046872492365e+01 0.000000000000e+00 9.642889221807e-03 -5.643146500617e+07 -5.294704293013e+04 -1.844591296324e+07 -3.182748526476e+07 3.220000577445e-05 -2.477110328937e-06 5.738272637264e-04 0.000000000000e+00 3.556828774472e+07 3.337170418722e+07  5.584404498143e-04
2.400000000000e+01 1.629409674463e+06 1.000000000000e+00 6.073928486791e+01 0.000000000000e+00 9.824554667889e-03 -5.651187845575e+07 -5.582265171243e+04 -1.857073206054e+07 -3.198452274540e+07 3.504604121395e-05 -2.690726981337e-06 5.750239465362e-04 0.000000000000e+00 3.568904442056e+07 3.332469238772e+07  5.583459243163e-04
2.500000000000e+01 1.665541095956e+06 1.000000000000e+00 6.098882370749e+01 0.000000000000e+00 9.997861922836e-03 -5.658510419746e+07 -5.857037962722e+04 -1.868773860999e+07 -3.212970333741e+07 3.771864993886e-05 -2.894843912150e-06 5.760704109739e-04 0.000000000000e+00 3.580084871495e+07 3.327900200101e+07  5.581902517466e-04
2.600000000000e+01 1.701109903124e+06 1.000000000000e+00 6.121794349529e+01 0.000000000000e+00 1.016317009415e-02 -5.665055938474e+07 -6.120475791896e+04 -1.879780372037e+07 -3.226332437616e+07 4.025052442235e-05 -3.090540585250e-06 5.769453454564e-04 0.000000000000e+00 3.590389582709e+07 3.323334970640e+07  5.579357830124e-04
2.700000000000e+01 1.736145150058e+06 1.000000000000e+00 6.142731992784e+01 0.000000000000e+00 1.032079766419e-02 -5.670821547971e+07 -6.373607594431e+04 -1.890152258779e+07 -3.238579235917e+07 4.265782312076e-05 -3.278581352848e-06 5.776417411779e-04 0.000000000000e+00 3.599851014222e+07 3.318716769227e+07  5.575670175765e-04
2.800000000000e+01 1.770687021672e+06 1.000000000000e+00 6.161763100355e+01 0.000000000000e+00 1.047106736440e-02 -5.675775194846e+07 -6.617921162005e+04 -1.899981683290e+07 -3.249752488811e+07 4.496796249912e-05 -3.460071431617e-06 5.781408774347e-04 0.000000000000e+00 3.608503122316e+07 3.313936241151e+07  5.570521436989e-04
2.900000000000e+01 1.804760455023e+06 1.000000000000e+00 6.178953270513e+01 0.000000000000e+00 1.061423022798e-02 -5.679932877037e+07 -6.853553101597e+04 -1.909278053759e+07 -3.259882773874e+07 4.718635785168e-05 -3.635112301029e-06 5.784506171408e-04 0.000000000000e+00 3.616364568223e+07 3.308994955818e+07  5.563958421324e-04
3.000000000000e+01 1.838375947160e+06 1.000000000000e+00 6.194364907881e+01 0.000000000000e+00 1.075055812536e-02 -5.683307728671e+07 -7.081522027025e+04 -1.918100620543e+07 -3.269013644459e+07 4.932430774799e-05 -3.804460645632e-06 5.785651299815e-04 0.000000000000e+00 3.623473997891e+07 3.303851341849e+07  5.555867116879e-04
3.100000000000e+01 1.871451877847e+06 1.000000000000e+00 6.210551098490e+01 0.000000000000e+00 1.088233621627e-02 -5.686604059355e+07 -7.305101879868e+04 -1.927058442992e+07 -3.278419560394e+07 5.159358226965e-05 -3.970548536315e-06 5.787315647047e-04 0.000000000000e+00 3.630694020914e+07 3.298486992490e+07  5.547797607054e-04
3.200000000000e+01 1.904065986798e+06 1.000000000000e+00 6.226067076260e+01 0.000000000000e+00 1.100947550305e-02 -5.689406612398e+07 -7.524739787637e+04 -1.935905579867e+07 -3.287408195561e+07 5.389126991598e-05 -4.133708124944e-06 5.787841212133e-04 0.000000000000e+00 3.637573462609e+07 3.292815318703e+07  5.538548359191e-04
3.300000000000e+01 1.936245323405e+06 1.000000000000e+00 6.240551181668e+01 0.000000000000e+00 1.113197995737e-02 -5.691616991894e+07 -7.740717497654e+04 -1.944566240852e+07 -3.295801858495e+07 5.618791805000e-05 -4.294148709528e-06 5.786849505086e-04 0.000000000000e+00 3.643995030414e+07 3.286831049121e+07  5.527870934124e-04
3.400000000000e+01 1.968015305748e+06 1.000000000000e+00 6.253905072010e+01 0.000000000000e+00 1.124984769421e-02 -5.693234433552e+07 -7.952789033297e+04 -1.953006521253e+07 -3.303555897542e+07 5.846722565155e-05 -4.451687564577e-06 5.784300608629e-04 0.000000000000e+00 3.649932284116e+07 3.280566371858e+07  5.515795531559e-04
3.500000000000e+01 1.999412242889e+06 1.000000000000e+00 6.266105221379e+01 0.000000000000e+00 1.136331475351e-02 -5.694060905173e+07 -8.164231201870e+04 -1.961423551614e+07 -3.310661849968e+07 6.079960423600e-05 -4.608758889802e-06 5.779430890583e-04 0.000000000000e+00 3.655382102251e+07 3.273684207687e+07  5.501270916392e-04
3.600000000000e+01 2.030475195425e+06 1.000000000000e+00 6.277154561234e+01 0.000000000000e+00 1.147265854455e-02 -5.693863903766e+07 -8.379394956082e+04 -1.970088783792e+07 -3.317132440591e+07 6.327613841869e-05 -4.768594821503e-06 5.771279364809e-04 0.000000000000e+00 3.660361709383e+07 3.265754238386e+07  5.482976527905e-04
3.700000000000e+01 2.061276360438e+06 1.000000000000e+00 6.287067364335e+01 0.000000000000e+00 1.157867544991e-02 -5.691837439850e+07 -8.611897744169e+04 -1.979860115398e+07 -3.322988240699e+07 6.620383648468e-05 -4.941311178368e-06 5.756735962100e-04 0.000000000000e+00 3.664895265316e+07 3.255354077150e+07  5.456596799976e-04
3.800000000000e+01 2.093686682823e+06 1.000000000000e+00 6.295889689354e+01 0.000000000000e+00 1.170555885399e-02 -5.661241922351e+07 -9.316164840566e+04 -2.019393827710e+07 -3.328820268538e+07 7.973406761006e-05 -5.464481021405e-06 5.631558276913e-04 0.000000000000e+00 3.669818672866e+07 3.195181267559e+07  5.279099209323e-04
3.900000000000e+01 2.123384718587e+06 1.000000000000e+00 6.303573581540e+01 0.000000000000e+00 1.179368533131e-02 -5.668441874618e+07 -9.365317626597e+04 -2.017619192851e+07 -3.333200209819e+07 7.868663495845e-05 -5.500994519599e-06 5.654418131149e-04 0.000000000000e+00 3.673087092429e+07 3.202587981146e+07  5.305790231653e-04
4.000000000000e+01 2.152770412537e+06 1.000000000000e+00 6.310165390717e+01 0.000000000000e+00 1.187771664109e-02 -5.675013793821e+07 -9.412309981576e+04 -2.015712256837e+07 -3.336969858010e+07 7.764579143955e-05 -5.535903126155e-06 5.675502586767e-04 0.000000000000e+00 3.675898636223e+07 3.209609819159e+07  5.330724291368e-04
4.200000000000e+01 2.210053104714e+06 1.000000000000e+00 6.324302094947e+01 0.000000000000e+00 1.203551613443e-02 -5.687444885431e+07 -9.502415675266e+04 -2.012447118667e+07 -3.344771535557e+07 7.592629478768e-05 -5.602838784325e-06 5.716607902291e-04 0.000000000000e+00 3.681554513218e+07 3.222526736677e+07  5.378205565571e-04
4.400000000000e+01 2.265818595915e+06 1.000000000000e+00 6.336257530123e+01 0.000000000000e+00 1.218245164827e-02 -5.698421731907e+07 -9.586506934835e+04 -2.008972264262e+07 -3.351309219613e+07 7.427746303161e-05 -5.665306577148e-06 5.753797330855e-04 0.000000000000e+00 3.686234405261e+07 3.234454701187e+07  5.421600492497e-04
5.000000000000e+01 2.417340202335e+06 1.000000000000e+00 6.341124502833e+01 0.000000000000e+00 1.248630280528e-02 -5.714664992593e+07 -9.761546968341e+04 -1.996409345478e+07 -3.354423256443e+07 6.940089417115e-05 -5.795336316323e-06 5.812026023140e-04 0.000000000000e+00 3.688499198171e+07 3.258906229054e+07  5.498888310578e-04
6.500000000000e+01 2.748724178568e+06 1.000000000000e+00 6.313157326548e+01 0.000000000000e+00 1.299753399719e-02 -5.718552813256e+07 -1.008754862922e+05 -1.961149956559e+07 -3.335816177625e+07 6.104564579226e-05 -6.037508978688e-06 5.873877460656e-04 0.000000000000e+00 3.671839649147e+07 3.292858019521e+07  5.594665542757e-04
8.000000000000e+01 3.003777392184e+06 1.000000000000e+00 6.251641643270e+01 0.000000000000e+00 1.323287589933e-02 -5.698660818982e+07 -1.025633445949e+05 -1.929515132427e+07 -3.299283185124e+07 5.486470359364e-05 -6.162892738317e-06 5.855684263857e-04 0.000000000000e+00 3.642486378845e+07 3.304570161829e+07  5.602565691480e-04
1.000000000000e+02 3.304456935822e+06 1.000000000000e+00 6.178102563910e+01 0.000000000000e+00 1.342692405643e-02 -5.668602498294e+07 -1.041108290388e+05 -1.895022656261e+07 -3.254613078297e+07 4.943746874208e-05 -6.277848725582e-06 5.817881635689e-04 0.000000000000e+00 3.606079410950e+07 3.310316163423e+07  5.588180657311e-04
1.860000000000e+02 3.902938202522e+06 1.000000000000e+00 5.983612523680e+01 0.000000000000e+00 1.364605454973e-02 -5.572015870705e+07 -1.067327255607e+05 -1.814681869361e+07 -3.134283649014e+07 4.061871382707e-05 -6.472618181491e-06 5.669352392550e-04 0.000000000000e+00 3.506993796360e+07 3.301676055556e+07  5.478712892082e-04
2.720000000000e+02 4.193259632165e+06 1.000000000000e+00 5.817046830928e+01 0.000000000000e+00 1.343366506098e-02 -5.488222295094e+07 -1.060592112397e+05 -1.772439319670e+07 -3.038572855891e+07 3.619231875153e-05 -6.422585689075e-06 5.470756059807e-04 0.000000000000e+00 3.433078156885e+07 3.271971465367e+07  5.300239774800e-04
3.580000000000e+02 4.334625370859e+06 1.000000000000e+00 5.696028890757e+01 0.000000000000e+00 1.321973982635e-02 -5.425128101966e+07 -1.052105031530e+05 -1.744701820494e+07 -2.969197197738e+07 3.385920317045e-05 -6.359538802635e-06 5.316100040746e-04 0.000000000000e+00 3.379675706732e+07 3.246320016849e+07  5.156327008030e-04
4.440000000000e+02 4.406754288317e+06 1.000000000000e+00 5.602093907444e+01 0.000000000000e+00 1.302212133728e-02 -5.376103769327e+07 -1.043189715917e+05 -1.725291473135e+07 -2.915944383669e+07 3.228862435398e-05 -6.293310743800e-06 5.190399450111e-04 0.000000000000e+00 3.339113208710e+07 3.224835028734e+07  5.037903842383e-04
5.300000000000e+02 4.445718820727e+06 1.000000000000e+00 5.528915678286e+01 0.000000000000e+00 1.285193548023e-02 -5.337890389703e+07 -1.035046941780e+05 -1.711266432718e+07 -2.874768819307e+07 3.118838430805e-05 -6.232821564493e-06 5.089554646886e-04 0.000000000000e+00 3.307975213909e+07 3.207315839829e+07  4.942179943281e-04
6.160000000000e+02 4.468234309314e+06 1.000000000000e+00 5.472609973464e+01 0.000000000000e+00 1.271145234353e-02 -5.308482328300e+07 -1.028072328241e+05 -1.701121880016e+07 -2.843272210049e+07 3.041263796203e-05 -6.181010149634e-06 5.010247008248e-04 0.000000000000e+00 3.284292139455e+07 3.193387845767e+07  4.866495774246e-04
7.020000000000e+02 4.482044613276e+06 1.000000000000e+00 5.431000330777e+01 0.000000000000e+00 1.260388177073e-02 -5.286755705017e+07 -1.022628345608e+05 -1.693891602435e+07 -2.820075228871e+07 2.986650502935e-05 -6.140569135784e-06 4.950942109173e-04 0.000000000000e+00 3.266907512108e+07 3.182931200381e+07  4.809747101814e-04
7.880000000000e+02 4.491663181074e+06 1.000000000000e+00 5.397876628405e+01 0.000000000000e+00 1.250744338831e-02 -5.269644023967e+07 -1.017422707811e+05 -1.688962767558e+07 -2.801905476407e+07 2.947350707581e-05 -6.101898683578e-06 4.901761558138e-04 0.000000000000e+00 3.253504089311e+07 3.174135658859e+07  4.762413678520e-04
8.740000000000e+02 4.500049265801e+06 1.000000000000e+00 5.345342637012e+01 0.000000000000e+00 1.237064140429e-02 -5.242192609050e+07 -1.010574285598e+05 -1.679807292944e+07 -2.772603938286e+07 2.878631845732e-05 -6.051024689997e-06 4.826933322252e-04 0.000000000000e+00 3.231534613427e+07 3.161034214262e+07  4.690803617992e-04
9.370000000000e+02 4.505423121656e+06 1.000000000000e+00 5.307942133524e+01 0.000000000000e+00 1.225906959544e-02 -5.222358570624e+07 -1.004766417547e+05 -1.674107912740e+07 -2.751889073069e+07 2.845915422042e-05 -6.007880527331e-06 4.771161520776e-04 0.000000000000e+00 3.216118518811e+07 3.150834828456e+07  4.636590425782e-04
1.000000000000e+03 4.509613149595e+06 1.000000000000e+00 5.277864308054e+01 0.000000000000e+00 1.216602763719e-02 -5.205927470279e+07 -1.000040187504e+05 -1.669503350021e+07 -2.735073906778e+07 2.831650115495e-05 -5.972771389873e-06 4.725807850366e-04 0.000000000000e+00 3.203501575693e+07 3.142248681300e+07  4.591945233476e-04
1.100000000000e+03 4.513758462105e+06 1.000000000000e+00 5.247292748188e+01 0.000000000000e+00 1.206891012061e-02 -5.188959769772e+07 -9.951517502002e+04 -1.664861219808e+07 -2.717910389677e+07 2.824376927721e-05 -5.936457284187e-06 4.679299841926e-04 0.000000000000e+00 3.190577126419e+07 3.133278026212e+07  4.545831042542e-04
1.200000000000e+03 4.517019836215e+06 1.000000000000e+00 5.221272200694e+01 0.000000000000e+00 1.198805635176e-02 -5.174720530256e+07 -9.910526438179e+04 -1.660882613898e+07 -2.703357202486e+07 2.812716014070e-05 -5.906006779632e-06 4.640022825738e-04 0.000000000000e+00 3.179653448880e+07 3.125862775246e+07  4.507136913961e-04
1.300000000000e+03 4.519925210579e+06 1.000000000000e+00 5.196360146924e+01 0.000000000000e+00 1.191106374798e-02 -5.161154735668e+07 -9.871389256659e+04 -1.657075302491e+07 -2.689445375556e+07 2.799863384228e-05 -5.876933444789e-06 4.602491768085e-04 0.000000000000e+00 3.169225137905e+07 3.118837320910e+07  4.470240431032e-04
1.400000000000e+03 4.522664725124e+06 1.000000000000e+00 5.170816780073e+01 0.000000000000e+00 1.183155209566e-02 -5.147225714912e+07 -9.830973840014e+04 -1.653192750566e+07 -2.675181031726e+07 2.787408527194e-05 -5.846910563852e-06 4.563930826723e-04 0.000000000000e+00 3.158533165735e+07 3.111616236517e+07  4.432297710289e-04
1.500000000000e+03 4.525304612681e+06 1.000000000000e+00 5.143635536309e+01 0.000000000000e+00 1.174580388942e-02 -5.132335412479e+07 -9.787480114071e+04 -1.649097797337e+07 -2.659991316086e+07 2.776287465190e-05 -5.814600938866e-06 4.522721709192e-04 0.000000000000e+00 3.147141508634e+07 3.103861312089e+07  4.391650566237e-04
1.600000000000e+03 4.527865656785e+06 1.000000000000e+00 5.114202467100e+01 0.000000000000e+00 1.165153922895e-02 -5.116120757666e+07 -9.739777743821e+04 -1.644706518779e+07 -2.643527252124e+07 2.767023696815e-05 -5.779164892395e-06 4.477879934837e-04 0.000000000000e+00 3.134784842856e+07 3.095371342713e+07  4.347292553663e-04
1.700000000000e+03 4.530352944705e+06 1.000000000000e+00 5.082138598867e+01 0.000000000000e+00 1.154734702336e-02 -5.098357553052e+07 -9.687167185244e+04 -1.639967414896e+07 -2.625573492181e+07 2.759945927474e-05 -5.740082763166e-06 4.428796926612e-04 0.000000000000e+00 3.121299486710e+07 3.086025416795e+07  4.298601609048e-04
1.800000000000e+03 4.532766352570e+06 1.000000000000e+00 5.047215205019e+01 0.000000000000e+00 1.143237604529e-02 -5.078910619146e+07 -9.629221938472e+04 -1.634850048390e+07 -2.606000298386e+07 2.755256274435e-05 -5.697037722707e-06 4.375103853822e-04 0.000000000000e+00 3.106586988641e+07 3.075754200932e+07  4.245201024721e-04
1.900000000000e+03 4.535105643823e+06 1.000000000000e+00 5.009303673527e+01 0.000000000000e+00 1.130614568654e-02 -5.057704625687e+07 -9.565706517497e+04 -1.629337444710e+07 -2.584734966058e+07 2.753052259311e-05 -5.649854838554e-06 4.316593718850e-04 0.000000000000e+00 3.090592345485e+07 3.064523935728e+07  4.186880670610e-04
2.000000000000e+03 4.537369988248e+06 1.000000000000e+00 4.968343827479e+01 0.000000000000e+00 1.116843464491e-02 -5.034703364146e+07 -9.496516627967e+04 -1.623421333031e+07 -2.561743090138e+07 2.753400868060e-05 -5.598456634903e-06 4.253169451666e-04 0.000000000000e+00 3.073289262438e+07 3.052324232078e+07  4.123541841303e-04