 TITLE = "Time curves in points"
 VARIABLES = "TIME"  "PRESSURE1"  "SATURATION1"  "TEMPERATURE1"  "DISPLACEMENT_X1"  "DISPLACEMENT_Y1"  "STRESS_XX"  "STRESS_XY"  "STRESS_YY"  "STRESS_ZZ"  "STRAIN_XX"  "STRAIN_XY"  "STRAIN_YY"  "STRAIN_PLS"  p_(1st_Invariant)  q_(2nd_Invariant)   Effective_Strain
 ZONE T="POINT=POINT9"
0.000000000000e+00 1.000000000000e+05 1.000000000000e+00 2.500000000000e+01 0.000000000000e+00 0.000000000000e+00 -6.854419775061e+07 7.586938602830e+05 -6.954707405871e+06 -1.965222756120e+07 0.000000000000e+00 0.000000000000e+00 0.000000000000e+00 0.000000000000e+00 3.171704423923e+07 5.633990941714e+07  0.000000000000e+00
1.000000000000e-03 1.375363589691e+05 1.000000000000e+00 2.500138182990e+01 0.000000000000e+00 -1.438919235673e-03 -1.002650243958e+08 1.577743358797e+06 2.515447691764e+07 -1.953615766817e+07 -1.182513299991e-03 6.084367703244e-05 1.188315678846e-03 0.000000000000e+00 3.154890171544e+07 1.101348938737e+08  2.055902918714e-03
2.000000000000e-03 1.596458000938e+05 1.000000000000e+00 2.500832035323e+01 0.000000000000e+00 -1.438939143525e-03 -1.002483060338e+08 1.577484834852e+06 2.515534594758e+07 -1.953310317343e+07 -1.182005784922e-03 6.082447239659e-05 1.188234504439e-03 0.000000000000e+00 3.154202108655e+07 1.101204071422e+08  2.055392376299e-03
3.000000000000e-03 1.750355646936e+05 1.000000000000e+00 2.502665568015e+01 0.000000000000e+00 -1.438807996118e-03 -1.002370854028e+08 1.577289575933e+06 2.515061822349e+07 -1.953708264428e+07 -1.181441209710e-03 6.080996744829e-05 1.188206712176e-03 0.000000000000e+00 3.154118327454e+07 1.101055955190e+08  2.054879182508e-03
4.000000000000e-03 1.856924439271e+05 1.000000000000e+00 2.506138519612e+01 0.000000000000e+00 -1.438685983520e-03 -1.002335783094e+08 1.577216822346e+06 2.514140861398e+07 -1.955011146342e+07 -1.180827018671e-03 6.080456289609e-05 1.188348568534e-03 0.000000000000e+00 3.154742705293e+07 1.100930670219e+08  2.054470844352e-03
1.000000000000e-02 2.014740841937e+05 1.000000000000e+00 2.571793100854e+01 0.000000000000e+00 -1.437059019367e-03 -1.004258428208e+08 1.579862283643e+06 2.503340930008e+07 -1.986043514449e+07 -1.176441963798e-03 6.100108287818e-05 1.195863473600e-03 0.000000000000e+00 3.175095622172e+07 1.101390982231e+08  2.057214746041e-03
2.000000000000e-02 1.996136693118e+05 1.000000000000e+00 2.714555529132e+01 0.000000000000e+00 -1.430867826001e-03 -1.009188822536e+08 1.585792277176e+06 2.483117597372e+07 -2.055466986013e+07 -1.168968996151e-03 6.144159668348e-05 1.214137810916e-03 0.000000000000e+00 3.221412538001e+07 1.103323325294e+08  2.066696350528e-03
3.000000000000e-02 1.895229973824e+05 1.000000000000e+00 2.854288111657e+01 0.000000000000e+00 -1.422489125628e-03 -1.014129970152e+08 1.591033236862e+06 2.463424728312e+07 -2.124085463823e+07 -1.161834966965e-03 6.183092511730e-05 1.232310179881e-03 0.000000000000e+00 3.267320145676e+07 1.105332382258e+08  2.076453495009e-03
4.000000000000e-02 1.762704398256e+05 1.000000000000e+00 2.980597817666e+01 0.000000000000e+00 -1.411816731719e-03 -1.018555298831e+08 1.595152843189e+06 2.444793511906e+07 -2.186443129525e+07 -1.155110483372e-03 6.213695301590e-05 1.248551432476e-03 0.000000000000e+00 3.309067535311e+07 1.107051116329e+08  2.084936152454e-03
5.000000000000e-02 1.621029107584e+05 1.000000000000e+00 3.092158001400e+01 0.000000000000e+00 -1.400474695399e-03 -1.022398519073e+08 1.598297222673e+06 2.427385324020e+07 -2.241733988629e+07 -1.148848696603e-03 6.237053549182e-05 1.262622138929e-03 0.000000000000e+00 3.346111285113e+07 1.108439124516e+08  2.091960812994e-03
6.000000000000e-02 1.477163395968e+05 1.000000000000e+00 3.190357153061e+01 0.000000000000e+00 -1.386873743023e-03 -1.025703939780e+08 1.600608539301e+06 2.411185445181e+07 -2.290512857896e+07 -1.143008107787e-03 6.254223329845e-05 1.274722906802e-03 0.000000000000e+00 3.378788936839e+07 1.109525010034e+08  2.097650884701e-03
7.000000000000e-02 1.339894559974e+05 1.000000000000e+00 3.277153675653e+01 0.000000000000e+00 -1.373751966703e-03 -1.028581276612e+08 1.602296630407e+06 2.396052451692e+07 -2.333791561369e+07 -1.137620411871e-03 6.266763435206e-05 1.285177027653e-03 0.000000000000e+00 3.407850625264e+07 1.110382394270e+08  2.102304809162e-03
8.000000000000e-02 1.215553872009e+05 1.000000000000e+00 3.354403425104e+01 0.000000000000e+00 -1.360074413093e-03 -1.031083304406e+08 1.603460086276e+06 2.381758889580e+07 -2.372416821975e+07 -1.132567132597e-03 6.275406250231e-05 1.294214515665e-03 0.000000000000e+00 3.433830325486e+07 1.111028338658e+08  2.106014853332e-03
9.000000000000e-02 1.113246820894e+05 1.000000000000e+00 3.423683393739e+01 0.000000000000e+00 -1.347432384140e-03 -1.033276942384e+08 1.604221711946e+06 2.368118049218e+07 -2.407178113292e+07 -1.127803594025e-03 6.281064040929e-05 1.302059254591e-03 0.000000000000e+00 3.457276495971e+07 1.111497650251e+08  2.108933826788e-03
1.000000000000e-01 1.043072920582e+05 1.000000000000e+00 3.486286591018e+01 0.000000000000e+00 -1.335861479180e-03 -1.035221635480e+08 1.604681763334e+06 2.355111487401e+07 -2.438698974085e+07 -1.123318991515e-03 6.284481565525e-05 1.308935994211e-03 0.000000000000e+00 3.478601280493e+07 1.111834198921e+08  2.111246093467e-03
2.000000000000e-01 1.252817049702e+05 1.000000000000e+00 3.848455432968e+01 0.000000000000e+00 -1.190811303236e-03 -1.045339594443e+08 1.601073054272e+06 2.265842294325e+07 -2.622166593043e+07 -1.092754866338e-03 6.257674012493e-05 1.343923980967e-03 0.000000000000e+00 3.603240081050e+07 1.111651050255e+08  2.116736138475e-03
3.000000000000e-01 1.557276402768e+05 1.000000000000e+00 4.088268918431e+01 0.000000000000e+00 -1.033708573122e-03 -1.050617193169e+08 1.593070251875e+06 2.190703797405e+07 -2.744302761729e+07 -1.066992513237e-03 6.198224623251e-05 1.361380259051e-03 0.000000000000e+00 3.686590298672e+07 1.108972110560e+08  2.110909087019e-03
4.000000000000e-01 1.867795076789e+05 1.000000000000e+00 4.262416465167e+01 0.000000000000e+00 -8.861275474072e-04 -1.053812633060e+08 1.583821853060e+06 2.125438225748e+07 -2.834340987757e+07 -1.045418520305e-03 6.129522232055e-05 1.370581530675e-03 0.000000000000e+00 3.749009697535e+07 1.105586032898e+08  2.101308221899e-03
5.000000000000e-01 2.162747069218e+05 1.000000000000e+00 4.397112210675e+01 0.000000000000e+00 -7.450689426046e-04 -1.055821198874e+08 1.574367113787e+06 2.066652689312e+07 -2.905107299797e+07 -1.026594277431e-03 6.059287026031e-05 1.375031533042e-03 0.000000000000e+00 3.798888866410e+07 1.101871895497e+08  2.089789826323e-03
6.000000000000e-01 2.436796878336e+05 1.000000000000e+00 4.505973126779e+01 0.000000000000e+00 -6.092896440096e-04 -1.057131315307e+08 1.565131456043e+06 2.012701027545e+07 -2.963305603254e+07 -1.009843911467e-03 5.990679282788e-05 1.376608857099e-03 0.000000000000e+00 3.840639242925e+07 1.098059224163e+08  2.077441507061e-03
7.000000000000e-01 2.690751213385e+05 1.000000000000e+00 4.596782647857e+01 0.000000000000e+00 -4.783433259401e-04 -1.058057236683e+08 1.556360380960e+06 1.963030447421e+07 -3.012759716456e+07 -9.949143773914e-04 5.925522725032e-05 1.376528455099e-03 0.000000000000e+00 3.876767211956e+07 1.094343600260e+08  2.065126316421e-03
8.000000000000e-01 2.927033968045e+05 1.000000000000e+00 4.674352205493e+01 0.000000000000e+00 -3.524823977475e-04 -1.058913353865e+08 1.548422732267e+06 1.918512692101e+07 -3.055830480253e+07 -9.820965289419e-04 5.866557334737e-05 1.375991001105e-03 0.000000000000e+00 3.908817108935e+07 1.091054114096e+08  2.054153295596e-03
9.000000000000e-01 3.146212675575e+05 1.000000000000e+00 4.741810052129e+01 0.000000000000e+00 -2.308077865108e-04 -1.059672987064e+08 1.541427793901e+06 1.877778072845e+07 -3.093941692185e+07 -9.707624306758e-04 5.814594935448e-05 1.375016592670e-03 0.000000000000e+00 3.937631163325e+07 1.088038915396e+08  2.044017522168e-03
1.000000000000e+00 3.350128080749e+05 1.000000000000e+00 4.801311861416e+01 0.000000000000e+00 -1.128081346730e-04 -1.060381812740e+08 1.535264679808e+06 1.839743361128e+07 -3.128308842391e+07 -9.606302702542e-04 5.768811802183e-05 1.373654355538e-03 0.000000000000e+00 3.964127869554e+07 1.085238283844e+08  2.034525624389e-03
2.000000000000e+00 4.696199193046e+05 1.000000000000e+00 5.123545558138e+01 0.000000000000e+00 8.481950413480e-04 -1.064792260596e+08 1.494696363052e+06 1.557763764319e+07 -3.339033390006e+07 -8.987428160331e-04 5.467447163423e-05 1.347188194408e-03 0.000000000000e+00 4.143064077216e+07 1.064216403614e+08  1.960203633717e-03
3.000000000000e+00 5.732938716149e+05 1.000000000000e+00 5.330581327076e+01 0.000000000000e+00 1.664000438485e-03 -1.067641041644e+08 1.463818971751e+06 1.325571207321e+07 -3.489843275424e+07 -8.533089024836e-04 5.238072256618e-05 1.316960344965e-03 0.000000000000e+00 4.280227494846e+07 1.046448978137e+08  1.895923479504e-03
4.000000000000e+00 6.596848185528e+05 1.000000000000e+00 5.481324054781e+01 0.000000000000e+00 2.372727055534e-03 -1.069674814529e+08 1.438496602747e+06 1.127688336055e+07 -3.608216574949e+07 -8.168956905207e-04 5.049963229733e-05 1.287428218318e-03 0.000000000000e+00 4.392425461395e+07 1.031061418151e+08  1.839601910332e-03
5.000000000000e+00 7.354991491260e+05 1.000000000000e+00 5.602123048570e+01 0.000000000000e+00 2.999280594879e-03 -1.071366556503e+08 1.417204907409e+06 9.563070840901e+06 -3.707123582738e+07 -7.864424149576e-04 4.891796350077e-05 1.260509213338e-03 0.000000000000e+00 4.488160687891e+07 1.017713088129e+08  1.790494892544e-03
6.000000000000e+00 8.041801810797e+05 1.000000000000e+00 5.707574356649e+01 0.000000000000e+00 3.563525363401e-03 -1.072747248045e+08 1.398371945876e+06 8.028415532221e+06 -3.794330094393e+07 -7.591797077853e-04 4.751894350121e-05 1.235898720488e-03 0.000000000000e+00 4.572987007206e+07 1.005653814351e+08  1.746093598712e-03
7.000000000000e+00 8.679226525443e+05 1.000000000000e+00 5.795128386241e+01 0.000000000000e+00 4.073598691176e-03 -1.073846433582e+08 1.381529173953e+06 6.665742853835e+06 -3.869276594801e+07 -7.354251253437e-04 4.626776615836e-05 1.213122435442e-03 0.000000000000e+00 4.647055548413e+07 9.948595547898e+07  1.706194301965e-03
8.000000000000e+00 9.274172585679e+05 1.000000000000e+00 5.879464964742e+01 0.000000000000e+00 4.542443228571e-03 -1.075127331022e+08 1.366853555894e+06 5.431344227502e+06 -3.939761918110e+07 -7.140024814631e-04 4.517757738824e-05 1.193453606550e-03 0.000000000000e+00 4.715966935193e+07 9.853141387520e+07  1.671042468523e-03
9.000000000000e+00 9.837478685344e+05 1.000000000000e+00 5.956008443391e+01 0.000000000000e+00 4.976070040518e-03 -1.076275903340e+08 1.353550492129e+06 4.305528401416e+06 -4.003862098470e+07 -6.944599687953e-04 4.418934979426e-05 1.175446228572e-03 0.000000000000e+00 4.778689430575e+07 9.765932629789e+07  1.638934694136e-03
1.000000000000e+01 1.037408528537e+06 1.000000000000e+00 6.025122427741e+01 0.000000000000e+00 5.379372119874e-03 -1.077190854689e+08 1.341144055366e+06 3.263541304250e+06 -4.062144376439e+07 -6.762106562762e-04 4.326772877761e-05 1.158391553923e-03 0.000000000000e+00 4.835899597635e+07 9.683987011175e+07  1.608746358450e-03
1.100000000000e+01 1.088698947588e+06 1.000000000000e+00 6.090039877616e+01 0.000000000000e+00 5.756269161877e-03 -1.078169718022e+08 1.329921531960e+06 2.305995054004e+06 -4.116606925653e+07 -6.596174875187e-04 4.243405561031e-05 1.143054497193e-03 0.000000000000e+00 4.889234866825e+07 9.609849937037e+07  1.581470675086e-03
1.200000000000e+01 1.138014398836e+06 1.000000000000e+00 6.149250877151e+01 0.000000000000e+00 6.109392929167e-03 -1.079106612106e+08 1.319730613149e+06 1.426472304871e+06 -4.166605359066e+07 -6.445265331359e-04 4.167701592716e-05 1.128957356064e-03 0.000000000000e+00 4.938341416548e+07 9.542110019676e+07  1.556538806282e-03
1.300000000000e+01 1.185617431388e+06 1.000000000000e+00 6.202969782128e+01 0.000000000000e+00 6.441329594926e-03 -1.079925662101e+08 1.310136081915e+06 6.051364105091e+05 -4.212582452141e+07 -6.304915128300e-04 4.096427932127e-05 1.115527800273e-03 0.000000000000e+00 4.983775144033e+07 9.478428782408e+07  1.533064528281e-03
1.400000000000e+01 1.232223996393e+06 1.000000000000e+00 6.251586801904e+01 0.000000000000e+00 6.753928811593e-03 -1.080660650509e+08 1.301156475346e+06 -1.597039899198e+05 -4.254826952875e+07 -6.175306552162e-04 4.029722283328e-05 1.102810257101e-03 0.000000000000e+00 5.025801285652e+07 9.418947081544e+07  1.511100695669e-03
1.500000000000e+01 1.277383997935e+06 1.000000000000e+00 6.295485478951e+01 0.000000000000e+00 7.048293775467e-03 -1.081326109961e+08 1.292825809609e+06 -8.691712486921e+05 -4.293550319561e+07 -6.056193969845e-04 3.967837337852e-05 1.090841580830e-03 0.000000000000e+00 5.064576181348e+07 9.363683315587e+07  1.490660306308e-03
1.600000000000e+01 1.321244167230e+06 1.000000000000e+00 6.335020122311e+01 0.000000000000e+00 7.326097335967e-03 -1.081856495583e+08 1.284880809502e+06 -1.535621561007e+06 -4.329050584281e+07 -5.944035881130e-04 3.908817337053e-05 1.079273524698e-03 0.000000000000e+00 5.100392565405e+07 9.311010692520e+07  1.471140604498e-03
1.700000000000e+01 1.363936577846e+06 1.000000000000e+00 6.370498280330e+01 0.000000000000e+00 7.588805441834e-03 -1.082190786479e+08 1.277199911348e+06 -2.168827266948e+06 -4.361545520465e+07 -5.835756922873e-04 3.851759236483e-05 1.067824003345e-03 0.000000000000e+00 5.133445370651e+07 9.259561108676e+07  1.452038442159e-03
1.800000000000e+01 1.405601219412e+06 1.000000000000e+00 6.402190349767e+01 0.000000000000e+00 7.837484836407e-03 -1.082323930637e+08 1.269689421317e+06 -2.773338357850e+06 -4.391251118033e+07 -5.730367200601e-04 3.795967024821e-05 1.056404241922e-03 0.000000000000e+00 5.163941420061e+07 9.208898857303e+07  1.433193021346e-03
1.900000000000e+01 1.446326269324e+06 1.000000000000e+00 6.430337138373e+01 0.000000000000e+00 8.072993292867e-03 -1.082262355252e+08 1.262296273001e+06 -3.351058640934e+06 -4.418328029331e+07 -5.627508730056e-04 3.741046494475e-05 1.045003198461e-03 0.000000000000e+00 5.192019148647e+07 9.158911921643e+07  1.414565417629e-03
2.000000000000e+01 1.486195002494e+06 1.000000000000e+00 6.455146576002e+01 0.000000000000e+00 8.295333284487e-03 -1.082167911395e+08 1.255396732520e+06 -3.887134895785e+06 -4.442889015300e+07 -5.532774296058e-04 3.689792765188e-05 1.034214446641e-03 0.000000000000e+00 5.217760539609e+07 9.112261939075e+07  1.397142554519e-03
2.100000000000e+01 1.525135769823e+06 1.000000000000e+00 6.481441094632e+01 0.000000000000e+00 8.507813232701e-03 -1.082175880375e+08 1.248992468555e+06 -4.399692123281e+06 -4.467556922214e+07 -5.441446632503e-04 3.642218232878e-05 1.024338972188e-03 0.000000000000e+00 5.243094979431e+07 9.068420434781e+07  1.380844689188e-03
2.200000000000e+01 1.563306510430e+06 1.000000000000e+00 6.506116726703e+01 0.000000000000e+00 8.711121495383e-03 -1.082092342223e+08 1.242720292418e+06 -4.893697320489e+06 -4.490826415420e+07 -5.351914240663e-04 3.595624924428e-05 1.014633162340e-03 0.000000000000e+00 5.267039856567e+07 9.025393248528e+07  1.364848649906e-03
2.300000000000e+01 1.600773398196e+06 1.000000000000e+00 6.528713866011e+01 0.000000000000e+00 8.904885807182e-03 -1.082048789329e+08 1.236886151426e+06 -5.354547945945e+06 -4.512493688238e+07 -5.269818119829e-04 3.552285591347e-05 1.005563697584e-03 0.000000000000e+00 5.289478792040e+07 8.985580903168e+07  1.350025029158e-03
2.400000000000e+01 1.637584976924e+06 1.000000000000e+00 6.549174879276e+01 0.000000000000e+00 9.089920145208e-03 -1.081951461674e+08 1.231259884271e+06 -5.793722666351e+06 -4.532601704925e+07 -5.191516173548e-04 3.510490463913e-05 9.967201855953e-04 0.000000000000e+00 5.310496196101e+07 8.947199907155e+07  1.335707860861e-03
2.500000000000e+01 1.673789537879e+06 1.000000000000e+00 6.567531305544e+01 0.000000000000e+00 9.266597973912e-03 -1.081783074855e+08 1.225782663261e+06 -6.212877290096e+06 -4.551159341331e+07 -5.116333442185e-04 3.469802536409e-05 9.880444216640e-04 0.000000000000e+00 5.330092606297e+07 8.909958012051e+07  1.321789994168e-03
2.600000000000e+01 1.709425930983e+06 1.000000000000e+00 6.583842479554e+01 0.000000000000e+00 9.435326982808e-03 -1.081522749815e+08 1.220455880914e+06 -6.614352050198e+06 -4.568194942140e+07 -5.043389137696e-04 3.430232153262e-05 9.794600108749e-04 0.000000000000e+00 5.348285881770e+07 8.873473279527e+07  1.308132026440e-03
2.700000000000e+01 1.744525519993e+06 1.000000000000e+00 6.598175920792e+01 0.000000000000e+00 9.596452392740e-03 -1.081159673066e+08 1.215202942402e+06 -7.000344098288e+06 -4.583765615262e+07 -4.972069501116e-04 3.391210324311e-05 9.709065562486e-04 0.000000000000e+00 5.365132251916e+07 8.837464119797e+07  1.294629627392e-03
2.800000000000e+01 1.779130508647e+06 1.000000000000e+00 6.610599582544e+01 0.000000000000e+00 9.750344210095e-03 -1.080676022677e+08 1.209955697484e+06 -7.373831537982e+06 -4.597931020953e+07 -4.901490979815e-04 3.352230790638e-05 9.622956020308e-04 0.000000000000e+00 5.380691467173e+07 8.801522145248e+07  1.281131734307e-03
2.900000000000e+01 1.813264952012e+06 1.000000000000e+00 6.621179283542e+01 0.000000000000e+00 9.897245346349e-03 -1.080074000539e+08 1.204742552618e+06 -7.734718875956e+06 -4.610717934624e+07 -4.831635906793e-04 3.313504571630e-05 9.536406402695e-04 0.000000000000e+00 5.394976609204e+07 8.765672268723e+07  1.267649697616e-03
3.000000000000e+01 1.846939596792e+06 1.000000000000e+00 6.629977559783e+01 0.000000000000e+00 1.003744977870e-02 -1.079351321188e+08 1.199518392627e+06 -8.085006575134e+06 -4.622201402611e+07 -4.762140649779e-04 3.274696525987e-05 9.448952424094e-04 0.000000000000e+00 5.408071757333e+07 8.729725344866e+07  1.254111777466e-03
3.100000000000e+01 1.880074704814e+06 1.000000000000e+00 6.640718552336e+01 0.000000000000e+00 1.017286032000e-02 -1.078678112866e+08 1.194482319160e+06 -8.429104117376e+06 -4.634316027847e+07 -4.692138589808e-04 3.237285694518e-05 9.366141944995e-04 0.000000000000e+00 5.421335856081e+07 8.694646498796e+07  1.240977099295e-03
3.200000000000e+01 1.912752184546e+06 1.000000000000e+00 6.650871856854e+01 0.000000000000e+00 1.030372199470e-02 -1.077912160505e+08 1.189378437785e+06 -8.769700060952e+06 -4.645841077403e+07 -4.620881603761e-04 3.199371147161e-05 9.282442207161e-04 0.000000000000e+00 5.433977562849e+07 8.659070467887e+07  1.227666183579e-03
3.300000000000e+01 1.944998357117e+06 1.000000000000e+00 6.660004687267e+01 0.000000000000e+00 1.043009597162e-02 -1.077032856878e+08 1.184172751488e+06 -9.106847064934e+06 -4.656565365416e+07 -4.548388684991e-04 3.160700334669e-05 9.197049246874e-04 0.000000000000e+00 5.445859546895e+07 8.622831188625e+07  1.214104649555e-03
3.400000000000e+01 1.976835932903e+06 1.000000000000e+00 6.668010061409e+01 0.000000000000e+00 1.055197985212e-02 -1.076043678997e+08 1.178881892704e+06 -9.439819508240e+06 -4.666440164276e+07 -4.474969967930e-04 3.121396812271e-05 9.110051592267e-04 0.000000000000e+00 5.456952968355e+07 8.586025313984e+07  1.200324527164e-03
3.500000000000e+01 2.008305328760e+06 1.000000000000e+00 6.674862453848e+01 0.000000000000e+00 1.066975686237e-02 -1.074880765672e+08 1.173398455677e+06 -9.774975250922e+06 -4.675455704739e+07 -4.398289751301e-04 3.080662708640e-05 9.019051466708e-04 0.000000000000e+00 5.467253628851e+07 8.547561411178e+07  1.185923092826e-03
3.600000000000e+01 2.039451252161e+06 1.000000000000e+00 6.680564193475e+01 0.000000000000e+00 1.078389881512e-02 -1.073455573119e+08 1.167459972842e+06 -1.012183913520e+07 -4.683632918364e+07 -4.314981520133e-04 3.036548264723e-05 8.920588817440e-04 0.000000000000e+00 5.476790854357e+07 8.505865511815e+07  1.170319465043e-03
3.700000000000e+01 2.070359241818e+06 1.000000000000e+00 6.685129454952e+01 0.000000000000e+00 1.089581505067e-02 -1.071489023179e+08 1.160448398084e+06 -1.050843750463e+07 -4.690980322141e+07 -4.214647879772e-04 2.984462280808e-05 8.804285494248e-04 0.000000000000e+00 5.485571434798e+07 8.456142077872e+07  1.151750291769e-03
3.800000000000e+01 2.103358399163e+06 1.000000000000e+00 6.688613448940e+01 0.000000000000e+00 1.105022330716e-02 -1.059661955556e+08 1.130585869462e+06 -1.188257894753e+07 -4.697993931710e+07 -3.749306246788e-04 2.762626353901e-05 8.319940651004e-04 0.000000000000e+00 5.494290460673e+07 8.237293059748e+07  1.070988694409e-03
3.900000000000e+01 2.133056539558e+06 1.000000000000e+00 6.690939968196e+01 0.000000000000e+00 1.113656933062e-02 -1.061109098312e+08 1.131690467769e+06 -1.189278074718e+07 -4.703507045900e+07 -3.782579982173e-04 2.770831941323e-05 8.336628692407e-04 0.000000000000e+00 5.501292034579e+07 8.249144050050e+07  1.075042228830e-03
4.000000000000e+01 2.162442327634e+06 1.000000000000e+00 6.692172717987e+01 0.000000000000e+00 1.121901879497e-02 -1.062430961798e+08 1.132670837830e+06 -1.190173255165e+07 -4.708224011480e+07 -3.814157610946e-04 2.778114690346e-05 8.350823894331e-04 0.000000000000e+00 5.507568961543e+07 8.260044053555e+07  1.078735158167e-03
4.200000000000e+01 2.219725185797e+06 1.000000000000e+00 6.697518423434e+01 0.000000000000e+00 1.137356045592e-02 -1.064989437031e+08 1.134627024701e+06 -1.191979056643e+07 -4.718396119938e+07 -3.871404573903e-04 2.792646364250e-05 8.381898748829e-04 0.000000000000e+00 5.520089848965e+07 8.280932724887e+07  1.085945152280e-03
4.400000000000e+01 2.275490822840e+06 1.000000000000e+00 6.700762225342e+01 0.000000000000e+00 1.151766042967e-02 -1.067252356338e+08 1.136296771484e+06 -1.193503007117e+07 -4.726860772461e+07 -3.924015724496e-04 2.805050197490e-05 8.407678499296e-04 0.000000000000e+00 5.530962447653e+07 8.299542880439e+07  1.092313457711e-03
5.000000000000e+01 2.427012687568e+06 1.000000000000e+00 6.679569470749e+01 0.000000000000e+00 1.181877597174e-02 -1.070547453073e+08 1.137926754271e+06 -1.194778310032e+07 -4.729960913598e+07 -4.034890221869e-04 2.817158641053e-05 8.414456469835e-04 0.000000000000e+00 5.543404584788e+07 8.328724820448e+07  1.101239830382e-03
6.500000000000e+01 2.758397042868e+06 1.000000000000e+00 6.601432355437e+01 0.000000000000e+00 1.233113579025e-02 -1.072112455032e+08 1.135825514975e+06 -1.192038095060e+07 -4.706965276005e+07 -4.178431234242e-04 2.801549434856e-05 8.339222042958e-04 0.000000000000e+00 5.540042640461e+07 8.348823854651e+07  1.104908313353e-03
8.000000000000e+01 3.013450390124e+06 1.000000000000e+00 6.501362913730e+01 0.000000000000e+00 1.257466273859e-02 -1.068722001409e+08 1.129636911847e+06 -1.185446197556e+07 -4.660160491259e+07 -4.226346443005e-04 2.755576954473e-05 8.189859890342e-04 0.000000000000e+00 5.510942234300e+07 8.329446450641e+07  1.094425834063e-03
1.000000000000e+02 3.314130012986e+06 1.000000000000e+00 6.391204582643e+01 0.000000000000e+00 1.277908897522e-02 -1.063543361057e+08 1.121619473301e+06 -1.177061105253e+07 -4.603903042910e+07 -4.242953180957e-04 2.696018839563e-05 8.012048282171e-04 0.000000000000e+00 5.472132586244e+07 8.296351575186e+07  1.078927108956e-03
1.860000000000e+02 3.912611203897e+06 1.000000000000e+00 6.127506049343e+01 0.000000000000e+00 1.302743757208e-02 -1.046711488182e+08 1.098828961976e+06 -1.153640553701e+07 -4.454746930171e+07 -4.171777750053e-04 2.526717898295e-05 7.545030483479e-04 0.000000000000e+00 5.358500788563e+07 8.181048871035e+07  1.029557837069e-03
2.720000000000e+02 4.202932547734e+06 1.000000000000e+00 5.927347595138e+01 0.000000000000e+00 1.284274643853e-02 -1.030600245712e+08 1.080208631122e+06 -1.134909105575e+07 -4.331058800993e+07 -4.032773223851e-04 2.388395440517e-05 7.155191382427e-04 0.000000000000e+00 5.257323454564e+07 8.065180992187e+07  9.822750164600e-04
3.580000000000e+02 4.344298233456e+06 1.000000000000e+00 5.786922926315e+01 0.000000000000e+00 1.264932915261e-02 -1.018397560416e+08 1.066532256934e+06 -1.121222739291e+07 -4.241381261625e+07 -3.912618630512e-04 2.286799517982e-05 6.872938453829e-04 0.000000000000e+00 5.182193201694e+07 7.976576824602e+07  9.465407447112e-04
4.440000000000e+02 4.416427119135e+06 1.000000000000e+00 5.679930453125e+01 0.000000000000e+00 1.246784166684e-02 -1.008794979856e+08 1.055992192955e+06 -1.110708696212e+07 -4.172096457371e+07 -3.813294911202e-04 2.208501899850e-05 6.654647055179e-04 0.000000000000e+00 5.123584984047e+07 7.906553634769e+07  9.184116815427e-04
5.300000000000e+02 4.455391631741e+06 1.000000000000e+00 5.597616457785e+01 0.000000000000e+00 1.231033220646e-02 -1.001247648474e+08 1.047820397759e+06 -1.102577738985e+07 -4.118292390816e+07 -3.732809135648e-04 2.147797135534e-05 6.485004077676e-04 0.000000000000e+00 5.077782204846e+07 7.851372883421e+07  8.962969115900e-04
6.160000000000e+02 4.477907107390e+06 1.000000000000e+00 5.534888645732e+01 0.000000000000e+00 1.217966635282e-02 -9.954022610747e+07 1.041557228529e+06 -1.096352293823e+07 -4.076995092827e+07 -3.669084710493e-04 2.101270735539e-05 6.354737195747e-04 0.000000000000e+00 5.042456665799e+07 7.808556136462e+07  8.791666320160e-04
7.020000000000e+02 4.491717402700e+06 1.000000000000e+00 5.488772591395e+01 0.000000000000e+00 1.207937718878e-02 -9.910678405572e+07 1.036939467145e+06 -1.091768262737e+07 -4.046518962866e+07 -3.621289002557e-04 2.066967365264e-05 6.258566542786e-04 0.000000000000e+00 5.016321877058e+07 7.776779808645e+07  8.664619900859e-04
7.880000000000e+02 4.501335964160e+06 1.000000000000e+00 5.452639218364e+01 0.000000000000e+00 1.198880956329e-02 -9.875966705689e+07 1.033317772938e+06 -1.088184224151e+07 -4.022412256570e+07 -3.581899026379e-04 2.040063351149e-05 6.182339491289e-04 0.000000000000e+00 4.995521062137e+07 7.751225048825e+07  8.562750363033e-04
8.740000000000e+02 4.509722042572e+06 1.000000000000e+00 5.394407546583e+01 0.000000000000e+00 1.186119859135e-02 -9.821234813448e+07 1.027484871126e+06 -1.082393722697e+07 -3.983928851207e+07 -3.521547503688e-04 1.996733223403e-05 6.060908705344e-04 0.000000000000e+00 4.962519129117e+07 7.711152122667e+07  8.402338804379e-04
9.370000000000e+02 4.515095894190e+06 1.000000000000e+00 5.354024825123e+01 0.000000000000e+00 1.175626185813e-02 -9.781381972614e+07 1.023330777851e+06 -1.078286100166e+07 -3.956635211122e+07 -3.474899043764e-04 1.965874244793e-05 5.974789211569e-04 0.000000000000e+00 4.938767761301e+07 7.681773185858e+07  8.285575336173e-04
1.000000000000e+03 4.519285919232e+06 1.000000000000e+00 5.322028932460e+01 0.000000000000e+00 1.166857285189e-02 -9.748642323818e+07 1.019933570464e+06 -1.074929702391e+07 -3.934626112587e+07 -3.435042714223e-04 1.940637847058e-05 5.905507751604e-04 0.000000000000e+00 4.919399379598e+07 7.657556874465e+07  8.189822579661e-04
1.100000000000e+03 4.523431229204e+06 1.000000000000e+00 5.289819375549e+01 0.000000000000e+00 1.157691071715e-02 -9.714953234036e+07 1.016450892794e+06 -1.071492483107e+07 -3.912230468797e+07 -3.393095629109e-04 1.914766527225e-05 5.835090746297e-04 0.000000000000e+00 4.899558728647e+07 7.632587631055e+07  8.091377682331e-04
1.200000000000e+03 4.526692601801e+06 1.000000000000e+00 5.262166732502e+01 0.000000000000e+00 1.150068948564e-02 -9.686590668292e+07 1.013509522526e+06 -1.068587049266e+07 -3.893187205269e+07 -3.358481078021e-04 1.892916348092e-05 5.775150236030e-04 0.000000000000e+00 4.882788307609e+07 7.611619676433e+07  8.008431941373e-04
1.300000000000e+03 4.529597975110e+06 1.000000000000e+00 5.235624210176e+01 0.000000000000e+00 1.142812964083e-02 -9.659533938785e+07 1.010700712648e+06 -1.065813320759e+07 -3.874963738230e+07 -3.325671817425e-04 1.872050903279e-05 5.717765492911e-04 0.000000000000e+00 4.866770332592e+07 7.591636960816e+07  7.929280173199e-04
1.400000000000e+03 4.532337488817e+06 1.000000000000e+00 5.208451193500e+01 0.000000000000e+00 1.135316548194e-02 -9.631751656921e+07 1.007819771749e+06 -1.062966042942e+07 -3.856279863528e+07 -3.291877733680e-04 1.850649628032e-05 5.658943847342e-04 0.000000000000e+00 4.850332521130e+07 7.571119648917e+07  7.848019039824e-04
1.500000000000e+03 4.534977375631e+06 1.000000000000e+00 5.179640772355e+01 0.000000000000e+00 1.127226282501e-02 -9.602069162866e+07 1.004747559962e+06 -1.059932769509e+07 -3.836397032533e+07 -3.255478985172e-04 1.827827483333e-05 5.596359776392e-04 0.000000000000e+00 4.832799654969e+07 7.549185192476e+07  7.761214235832e-04
1.600000000000e+03 4.537538419005e+06 1.000000000000e+00 5.148578814144e+01 0.000000000000e+00 1.118325288333e-02 -9.569772355768e+07 1.001412134977e+06 -1.056641123556e+07 -3.814864356438e+07 -3.215497927160e-04 1.803050040580e-05 5.528607378723e-04 0.000000000000e+00 4.813759278588e+07 7.525301802448e+07  7.666790835642e-04
1.700000000000e+03 4.540025706284e+06 1.000000000000e+00 5.114886235920e+01 0.000000000000e+00 1.108479327836e-02 -9.534419265303e+07 9.977687685060e+05 -1.053046751213e+07 -3.791403259508e+07 -3.171327665461e-04 1.775985032514e-05 5.454816687399e-04 0.000000000000e+00 4.792956425341e+07 7.499141333614e+07  7.563463426942e-04
1.800000000000e+03 4.542439113240e+06 1.000000000000e+00 5.078334241737e+01 0.000000000000e+00 1.097607453174e-02 -9.495743676014e+07 9.937912375893e+05 -1.049124863321e+07 -3.765846362125e+07 -3.122601095522e-04 1.746437659990e-05 5.374458080723e-04 0.000000000000e+00 4.770238300487e+07 7.470506192962e+07  7.450451482220e-04
1.900000000000e+03 4.544778403850e+06 1.000000000000e+00 5.038794173631e+01 0.000000000000e+00 1.085663912964e-02 -9.453596107186e+07 9.894635092638e+05 -1.044858335164e+07 -3.738098652607e+07 -3.069115903802e-04 1.714288821000e-05 5.287242264237e-04 0.000000000000e+00 4.745517698319e+07 7.439289877455e+07  7.327327350200e-04
2.000000000000e+03 4.547042747354e+06 1.000000000000e+00 4.996205823525e+01 0.000000000000e+00 1.072627693934e-02 -9.407906301207e+07 9.847787646504e+05 -1.040241971260e+07 -3.708116422355e+07 -3.010773479672e-04 1.679487861015e-05 5.193026189228e-04 0.000000000000e+00 4.718754898274e+07 7.405442337952e+07  7.193881001375e-04