 TITLE = "Time curves in points"
 VARIABLES = "TIME"  "PRESSURE1"  "SATURATION1"  "TEMPERATURE1"  "DISPLACEMENT_X1"  "DISPLACEMENT_Y1"  "STRESS_XX"  "STRESS_XY"  "STRESS_YY"  "STRESS_ZZ"  "STRAIN_XX"  "STRAIN_XY"  "STRAIN_YY"  "STRAIN_PLS"  p_(1st_Invariant)  q_(2nd_Invariant)   Effective_Strain
 ZONE T="POINT=POINT6"
0.000000000000e+00 1.000000000000e+05 1.000000000000e+00 2.500000000000e+01 0.000000000000e+00 0.000000000000e+00 -3.096833482140e+07 1.077886406635e+03 -1.276457505907e+07 -1.019441292181e+07 0.000000000000e+00 0.000000000000e+00 0.000000000000e+00 0.000000000000e+00 1.797577426743e+07 1.961553518206e+07  0.000000000000e+00
1.000000000000e-03 2.334135896320e+05 1.000000000000e+00 2.447870096528e+01 0.000000000000e+00 5.466344584500e-05 -3.071573393281e+07 1.328362499337e+04 -1.215269036577e+07 -9.764561696487e+06 -6.583583935896e-06 9.067120093005e-07 6.761243096328e-06 0.000000000000e+00 1.754432866502e+07 1.986507515487e+07  1.166351478276e-05
2.000000000000e-03 2.334135767170e+05 1.000000000000e+00 2.447870184588e+01 0.000000000000e+00 5.278816493700e-05 -3.071691858820e+07 1.232664978623e+04 -1.216315338695e+07 -9.767515063604e+06 -6.517888928975e-06 8.356224224840e-07 6.482313088403e-06 0.000000000000e+00 1.754919567959e+07 1.986025812816e+07  1.135116955553e-05
3.000000000000e-03 2.334099446350e+05 1.000000000000e+00 2.447870265160e+01 0.000000000000e+00 5.122332899800e-05 -3.071742170999e+07 1.144710279611e+04 -1.217106616241e+07 -9.769540924455e+06 -6.461330049500e-06 7.702846460751e-07 6.263656259942e-06 0.000000000000e+00 1.755267626562e+07 1.985634814345e+07  1.110106938413e-05
4.000000000000e-03 2.333989359300e+05 1.000000000000e+00 2.447870339123e+01 0.000000000000e+00 4.963293375401e-05 -3.071764417316e+07 1.063838225427e+04 -1.217758912589e+07 -9.771103884999e+06 -6.411540146777e-06 7.102082629675e-07 6.079427579538e-06 0.000000000000e+00 1.755544572801e+07 1.985299777697e+07  1.088847868504e-05
1.000000000000e-02 2.311936456360e+05 1.000000000000e+00 2.447870657472e+01 0.000000000000e+00 4.116434146700e-05 -3.071761497114e+07 7.414598348123e+03 -1.220311011332e+07 -9.776861818151e+06 -6.196589412088e-06 4.707271727963e-07 5.345371277659e-06 0.000000000000e+00 1.756586230087e+07 1.983921676116e+07  1.003785523478e-05
2.000000000000e-02 2.212675572970e+05 1.000000000000e+00 2.447871069638e+01 0.000000000000e+00 3.350073065700e-05 -3.071692300636e+07 4.401746973348e+03 -1.223395665822e+07 -9.784034945040e+06 -5.904457435674e-06 2.469153563844e-07 4.466072894308e-06 0.000000000000e+00 1.757830486987e+07 1.982180718637e+07  9.020036784608e-06
3.000000000000e-02 2.075009229160e+05 1.000000000000e+00 2.447871456597e+01 0.000000000000e+00 3.069363653000e-05 -3.071585388206e+07 2.652334236246e+03 -1.225944054036e+07 -9.790179882810e+06 -5.636506558830e-06 1.169589816282e-07 3.747769246273e-06 0.000000000000e+00 1.758849143508e+07 1.980682099892e+07  8.184213136202e-06
4.000000000000e-02 1.919972533250e+05 1.000000000000e+00 2.447871851270e+01 0.000000000000e+00 3.291876338700e-05 -3.071339752936e+07 1.603496730536e+03 -1.227953321840e+07 -9.794683976997e+06 -5.377975674452e-06 3.904533834696e-08 3.168764703207e-06 0.000000000000e+00 1.759587157492e+07 1.979361540119e+07  7.483969882792e-06
5.000000000000e-02 1.762362105500e+05 1.000000000000e+00 2.447872261597e+01 0.000000000000e+00 3.742749550703e-05 -3.071056635573e+07 9.584624958274e+02 -1.229758703826e+07 -9.798696557340e+06 -5.123779098498e-06 -8.871490517139e-09 2.647232949671e-06 0.000000000000e+00 1.760228331711e+07 1.978115978600e+07  6.842881520708e-06
6.000000000000e-02 1.604597903140e+05 1.000000000000e+00 2.447872687006e+01 0.000000000000e+00 4.677630613400e-05 -3.070556068575e+07 5.573840092642e+02 -1.231004918141e+07 -9.800523873950e+06 -4.869982453649e-06 -3.866589237612e-08 2.252225107046e-06 0.000000000000e+00 1.760537791370e+07 1.977009264953e+07  6.305713991163e-06
7.000000000000e-02 1.455698547290e+05 1.000000000000e+00 2.447873122071e+01 0.000000000000e+00 5.634363715673e-05 -3.070081898034e+07 3.090288649995e+02 -1.232272236531e+07 -9.802588034647e+06 -4.617193140917e-06 -5.711513166435e-08 1.858175673713e-06 0.000000000000e+00 1.760870979343e+07 1.975906841767e+07  5.775866318137e-06
8.000000000000e-02 1.319055427570e+05 1.000000000000e+00 2.447873561305e+01 0.000000000000e+00 6.753861195099e-05 -3.069551170227e+07 1.614623589085e+02 -1.233390630043e+07 -9.804100194830e+06 -4.363899720144e-06 -6.807721497397e-08 1.498938318942e-06 0.000000000000e+00 1.761117273251e+07 1.974841192089e+07  5.276888939859e-06
9.000000000000e-02 1.205674320160e+05 1.000000000000e+00 2.447873993944e+01 0.000000000000e+00 7.760223547500e-05 -3.069107695711e+07 8.231707667320e+01 -1.234696159127e+07 -9.806481376556e+06 -4.110736721671e-06 -7.395657879717e-08 1.102471408826e-06 0.000000000000e+00 1.761483997498e+07 1.973736229693e+07  4.760459855273e-06
1.000000000000e-01 1.126213907650e+05 1.000000000000e+00 2.447874405795e+01 0.000000000000e+00 8.646834670091e-05 -3.068747843769e+07 5.140449696846e+01 -1.236183166910e+07 -9.809691645345e+06 -3.857838873970e-06 -7.625294186095e-08 6.693927875218e-07 0.000000000000e+00 1.761966725071e+07 1.972593127777e+07  4.234484683239e-06
2.000000000000e-01 1.225914106110e+05 1.000000000000e+00 2.448021059699e+01 0.000000000000e+00 2.602023956070e-04 -3.060608156776e+07 8.503524724529e+02 -1.240251344277e+07 -9.797236159069e+06 -1.297158909525e-06 -1.690252082496e-08 -1.304276867770e-06 0.000000000000e+00 1.760194372320e+07 1.963626000270e+07  1.301061916465e-06
3.000000000000e-01 1.420620612730e+05 1.000000000000e+00 2.448611462932e+01 0.000000000000e+00 4.663654012569e-04 -3.051079669186e+07 1.843721439827e+03 -1.240312944872e+07 -9.770511969564e+06 1.249380870971e-06 5.689060246569e-08 -2.319769841997e-06 0.000000000000e+00 1.756147937005e+07 1.955732239517e+07  3.138514038232e-06
4.000000000000e-01 1.621984937820e+05 1.000000000000e+00 2.449981673137e+01 0.000000000000e+00 6.660330918270e-04 -3.042591117584e+07 2.767498273975e+03 -1.241092754486e+07 -9.751974022753e+06 3.713719155678e-06 1.255140244309e-07 -3.297965722715e-06 0.000000000000e+00 1.752960424782e+07 1.948103426954e+07  6.079742401258e-06
5.000000000000e-01 1.815513874540e+05 1.000000000000e+00 2.452393734028e+01 0.000000000000e+00 8.611610646280e-04 -3.035237515288e+07 3.563609393934e+03 -1.242134361590e+07 -9.741390244266e+06 6.051945378932e-06 1.846537076279e-07 -4.077960133707e-06 0.000000000000e+00 1.750503633768e+07 1.941026554627e+07  8.833894083787e-06
6.000000000000e-01 1.998797458080e+05 1.000000000000e+00 2.455991550361e+01 0.000000000000e+00 1.052347936292e-03 -3.029118606411e+07 4.235418177653e+03 -1.243219492674e+07 -9.738878043223e+06 8.231372637476e-06 2.345595029899e-07 -4.574319146660e-06 0.000000000000e+00 1.748741967802e+07 1.934676966444e+07  1.124712723733e-05
7.000000000000e-01 2.172260171510e+05 1.000000000000e+00 2.460807585663e+01 0.000000000000e+00 1.239772444605e-03 -3.024275165110e+07 4.802550344781e+03 -1.244234940176e+07 -9.744313912241e+06 1.023226882698e-05 2.766893211194e-07 -4.749581655444e-06 0.000000000000e+00 1.747647165504e+07 1.929144634109e+07  1.326975954962e-05
8.000000000000e-01 2.338742176340e+05 1.000000000000e+00 2.466791995127e+01 0.000000000000e+00 1.423629226377e-03 -3.020674011804e+07 5.284212897963e+03 -1.245074298501e+07 -9.757089142981e+06 1.204434862523e-05 3.124699679272e-07 -4.586834748606e-06 0.000000000000e+00 1.747152408201e+07 1.924473431550e+07  1.488770419031e-05
9.000000000000e-01 2.497064717590e+05 1.000000000000e+00 2.473844571409e+01 0.000000000000e+00 1.603745480574e-03 -3.018263122902e+07 5.699114369404e+03 -1.245773668103e+07 -9.776792446196e+06 1.367165862268e-05 3.432912200914e-07 -4.114763624163e-06 0.000000000000e+00 1.747238678542e+07 1.920622034704e+07  1.613860958527e-05
1.000000000000e+00 2.648014421000e+05 1.000000000000e+00 2.481840735633e+01 0.000000000000e+00 1.780147808158e-03 -3.016946634874e+07 6.061013941708e+03 -1.246335999619e+07 -9.802698544908e+06 1.512286641397e-05 3.701751883197e-07 -3.361403092316e-06 0.000000000000e+00 1.747850829661e+07 1.917538490769e+07  1.706590924218e-05
2.000000000000e+00 3.766350511870e+05 1.000000000000e+00 2.591890828956e+01 0.000000000000e+00 3.262752306623e-03 -3.048663982958e+07 7.700068398172e+03 -1.245304988455e+07 -1.028189839256e+07 2.114098860955e-05 4.919335193713e-07 1.482039539552e-05 0.000000000000e+00 1.774052936890e+07 1.921140543258e+07  1.881472042273e-05
3.000000000000e+00 4.686151700600e+05 1.000000000000e+00 2.708342743637e+01 0.000000000000e+00 4.537430840424e-03 -3.096492839579e+07 8.487585774065e+03 -1.241524040901e+07 -1.082321822652e+07 2.348214998342e-05 5.504348101519e-07 3.633091260568e-05 0.000000000000e+00 1.806779567711e+07 1.939477223137e+07  3.192377758356e-05
4.000000000000e+00 5.483132884460e+05 1.000000000000e+00 2.823167826303e+01 0.000000000000e+00 5.653304186581e-03 -3.148971212457e+07 8.890496615077e+03 -1.236883592880e+07 -1.136983486201e+07 2.429308651830e-05 5.803653297700e-07 5.835741118888e-05 0.000000000000e+00 1.840946097179e+07 1.963944812019e+07  5.078454810281e-05
5.000000000000e+00 6.197397654110e+05 1.000000000000e+00 2.933713694020e+01 0.000000000000e+00 6.645802401430e-03 -3.201587971815e+07 9.121304688613e+03 -1.232162898183e+07 -1.190135247639e+07 2.449180157647e-05 5.975110723755e-07 7.985289489601e-05 0.000000000000e+00 1.874628705879e+07 1.990772274464e+07  7.086369288345e-05
6.000000000000e+00 6.851606366850e+05 1.000000000000e+00 3.039255406408e+01 0.000000000000e+00 7.542331120941e-03 -3.252588945450e+07 9.285276154266e+03 -1.227716223697e+07 -1.241111473871e+07 2.448260968364e-05 6.096918098240e-07 1.004385437340e-04 0.000000000000e+00 1.907138881006e+07 2.018209077831e+07  9.071613281665e-05
7.000000000000e+00 7.462730414350e+05 1.000000000000e+00 3.139551191406e+01 0.000000000000e+00 8.356344818894e-03 -3.301481867383e+07 9.396111785694e+03 -1.223455462593e+07 -1.289659010778e+07 2.435432381713e-05 6.179253138729e-07 1.200530544243e-04 0.000000000000e+00 1.938198780251e+07 2.045728861845e+07  1.099236257480e-04
8.000000000000e+00 8.036369444830e+05 1.000000000000e+00 3.234847821821e+01 0.000000000000e+00 9.107001059665e-03 -3.347943324846e+07 9.503267804222e+03 -1.219511661530e+07 -1.335810955654e+07 2.423936199924e-05 6.258854752493e-07 1.386600457729e-04 0.000000000000e+00 1.967755314010e+07 2.072731164562e+07  1.282743119936e-04
9.000000000000e+00 8.580655136630e+05 1.000000000000e+00 3.325456045260e+01 0.000000000000e+00 9.803154165371e-03 -3.392127818759e+07 9.598996483576e+03 -1.215800405431e+07 -1.379700074587e+07 2.412965129252e-05 6.329967485727e-07 1.563401850706e-04 0.000000000000e+00 1.995876099592e+07 2.099182586807e+07  1.457849836070e-04
1.000000000000e+01 9.100569319250e+05 1.000000000000e+00 3.411648238339e+01 0.000000000000e+00 1.045146454342e-02 -3.434182747215e+07 9.682133822072e+03 -1.212271548975e+07 -1.421452785646e+07 2.401739911633e-05 6.391726651468e-07 1.731590530047e-04 0.000000000000e+00 2.022635693945e+07 2.125056903410e+07  1.624908878561e-04
1.100000000000e+01 9.599017900680e+05 1.000000000000e+00 3.493739274946e+01 0.000000000000e+00 1.105912744920e-02 -3.474202119476e+07 9.758825355278e+03 -1.208878291578e+07 -1.461194921060e+07 2.391442543013e-05 6.448697504706e-07 1.891807703345e-04 0.000000000000e+00 2.048091777371e+07 2.150297586581e+07  1.784330735991e-04
1.200000000000e+01 1.007946846100e+06 1.000000000000e+00 3.572000571424e+01 0.000000000000e+00 1.163009324278e-02 -3.512353096264e+07 9.824187371244e+03 -1.205570661181e+07 -1.499057630755e+07 2.380735479578e-05 6.497252145138e-07 2.044726109402e-04 0.000000000000e+00 2.072327129400e+07 2.174941864331e+07  1.936727993317e-04
1.300000000000e+01 1.054427457860e+06 1.000000000000e+00 3.646655380801e+01 0.000000000000e+00 1.216753471662e-02 -3.548761834869e+07 9.878266497050e+03 -1.202336242882e+07 -1.535153857853e+07 2.369127909320e-05 6.537425210023e-07 2.190811363733e-04 0.000000000000e+00 2.095417311868e+07 2.198988808916e+07  2.082517486401e-04
1.400000000000e+01 1.100043684190e+06 1.000000000000e+00 3.717896992581e+01 0.000000000000e+00 1.267452910512e-02 -3.583504458832e+07 9.921050904482e+03 -1.199100095344e+07 -1.569552115886e+07 2.356337174751e-05 6.569207912687e-07 2.330596298710e-04 0.000000000000e+00 2.117385556687e+07 2.222456840238e+07  2.222198179742e-04
1.500000000000e+01 1.144328323690e+06 1.000000000000e+00 3.785899718853e+01 0.000000000000e+00 1.315294414835e-02 -3.616691313373e+07 9.952585703125e+03 -1.195902645485e+07 -1.602359048127e+07 2.342225775024e-05 6.592633763107e-07 2.464326860796e-04 0.000000000000e+00 2.138317668995e+07 2.245324586767e+07  2.355991615428e-04
1.600000000000e+01 1.187416062120e+06 1.000000000000e+00 3.850823173461e+01 0.000000000000e+00 1.360480244800e-02 -3.648397370558e+07 9.974472177998e+03 -1.192747844320e+07 -1.633654527308e+07 2.326975734920e-05 6.608892287298e-07 2.592285044941e-04 0.000000000000e+00 2.158266580729e+07 2.267576679260e+07  2.484150258650e-04
1.700000000000e+01 1.229427499770e+06 1.000000000000e+00 3.912814233171e+01 0.000000000000e+00 1.403188456994e-02 -3.678691088580e+07 9.988087936982e+03 -1.189639064248e+07 -1.663511785420e+07 2.310764366815e-05 6.619006851115e-07 2.714730329620e-04 0.000000000000e+00 2.177280646082e+07 2.289201710783e+07  2.606909723175e-04
1.800000000000e+01 1.270471825970e+06 1.000000000000e+00 3.972008145039e+01 0.000000000000e+00 1.443576165308e-02 -3.707634304993e+07 9.994281469389e+03 -1.186571121186e+07 -1.691995386933e+07 2.293692956257e-05 6.623607760903e-07 2.831921780900e-04 0.000000000000e+00 2.195400271037e+07 2.310196907873e+07  2.724512242458e-04
1.900000000000e+01 1.310633782880e+06 1.000000000000e+00 4.028529438307e+01 0.000000000000e+00 1.481781661506e-02 -3.735284832380e+07 9.993610644262e+03 -1.183537785221e+07 -1.719164588228e+07 2.275815129986e-05 6.623109433666e-07 2.944102633579e-04 0.000000000000e+00 2.212662401943e+07 2.330563869109e+07  2.837189089058e-04
2.000000000000e+01 1.349995946340e+06 1.000000000000e+00 4.082492863823e+01 0.000000000000e+00 1.517928750663e-02 -3.761693703565e+07 9.984694551173e+03 -1.180501266400e+07 -1.745063691853e+07 2.256880906335e-05 6.616486050228e-07 3.051577802667e-04 0.000000000000e+00 2.229086220606e+07 2.350328457439e+07  2.945248506653e-04
2.100000000000e+01 1.388472754850e+06 1.000000000000e+00 4.134131914436e+01 0.000000000000e+00 1.552472467759e-02 -3.786865271098e+07 9.983580075177e+03 -1.177540479027e+07 -1.769799837015e+07 2.240708075371e-05 6.615658153774e-07 3.154452123508e-04 0.000000000000e+00 2.244735195714e+07 2.369378184601e+07  3.048620440862e-04
2.200000000000e+01 1.426190233860e+06 1.000000000000e+00 4.183639356871e+01 0.000000000000e+00 1.585493815952e-02 -3.810944025909e+07 9.983058866735e+03 -1.174633388258e+07 -1.793477479858e+07 2.225809630866e-05 6.615270970360e-07 3.253195419781e-04 0.000000000000e+00 2.259684964675e+07 2.387810611420e+07  3.147833324717e-04
2.300000000000e+01 1.463228482370e+06 1.000000000000e+00 4.231146548328e+01 0.000000000000e+00 1.617049420580e-02 -3.834024111753e+07 9.978530422955e+03 -1.171733186314e+07 -1.816156875917e+07 2.210926867424e-05 6.611906983552e-07 3.348205355223e-04 0.000000000000e+00 2.273971391328e+07 2.405708733318e+07  3.243336015751e-04
2.400000000000e+01 1.499644120820e+06 1.000000000000e+00 4.276749054018e+01 0.000000000000e+00 1.647192686994e-02 -3.856167648673e+07 9.970137179980e+03 -1.168849249552e+07 -1.837892945086e+07 2.195792350937e-05 6.605672003056e-07 3.439651091536e-04 0.000000000000e+00 2.287636614437e+07 2.423090834879e+07  3.335306525798e-04
2.500000000000e+01 1.535482131400e+06 1.000000000000e+00 4.320524538876e+01 0.000000000000e+00 1.675975341730e-02 -3.877418828010e+07 9.957690283452e+03 -1.165979170756e+07 -1.858725421997e+07 2.180240546574e-05 6.596425737064e-07 3.527689155593e-04 0.000000000000e+00 2.300707806921e+07 2.439972479389e+07  3.423906352709e-04
2.600000000000e+01 1.570774235150e+06 1.000000000000e+00 4.362540764395e+01 0.000000000000e+00 1.703446567957e-02 -3.897813564396e+07 9.941394142013e+03 -1.163125238171e+07 -1.878689505559e+07 2.164244870268e-05 6.584320031995e-07 3.612441786998e-04 0.000000000000e+00 2.313209436042e+07 2.456361166157e+07  3.509256961549e-04
2.700000000000e+01 1.605546318150e+06 1.000000000000e+00 4.402858938007e+01 0.000000000000e+00 1.729653735687e-02 -3.917382109302e+07 9.921481197221e+03 -1.160287289007e+07 -1.897815670970e+07 2.147813631864e-05 6.569527558721e-07 3.694022783988e-04 0.000000000000e+00 2.325161689759e+07 2.472263584984e+07  3.591470115354e-04
2.800000000000e+01 1.639831833480e+06 1.000000000000e+00 4.441535216502e+01 0.000000000000e+00 1.754640641166e-02 -3.936152510257e+07 9.898308473251e+03 -1.157468943000e+07 -1.916133101646e+07 2.130989021502e-05 6.552313535201e-07 3.772527097380e-04 0.000000000000e+00 2.336584851634e+07 2.487683456783e+07  3.670637445760e-04
2.900000000000e+01 1.673654166930e+06 1.000000000000e+00 4.478621585322e+01 0.000000000000e+00 1.778449018933e-02 -3.954150140999e+07 9.871967947513e+03 -1.154668932195e+07 -1.933667253058e+07 2.113774074931e-05 6.532746287509e-07 3.848053985616e-04 0.000000000000e+00 2.347495442084e+07 2.502627656101e+07  3.746856848021e-04
3.000000000000e+01 1.707028523550e+06 1.000000000000e+00 4.514166471358e+01 0.000000000000e+00 1.801119242865e-02 -3.971397471889e+07 9.842743300904e+03 -1.151886345485e+07 -1.950441570477e+07 2.096205003166e-05 6.511036550028e-07 3.920693915237e-04 0.000000000000e+00 2.357908462617e+07 2.517101707074e+07  3.820216079206e-04
3.100000000000e+01 1.739862169900e+06 1.000000000000e+00 4.548316211200e+01 0.000000000000e+00 1.822961077494e-02 -3.987880584563e+07 9.822020160098e+03 -1.149171163357e+07 -1.966518349684e+07 2.081112617250e-05 6.495642216858e-07 3.990492628766e-04 0.000000000000e+00 2.367856699201e+07 2.531031279336e+07  3.890630005760e-04
3.200000000000e+01 1.772216944290e+06 1.000000000000e+00 4.581188528851e+01 0.000000000000e+00 1.843995953288e-02 -4.003697106256e+07 9.803952710669e+03 -1.146505989144e+07 -1.981962989912e+07 2.067299877149e-05 6.482220682997e-07 4.057757653837e-04 0.000000000000e+00 2.377388695104e+07 2.544498387116e+07  3.958459338268e-04
3.300000000000e+01 1.804125471630e+06 1.000000000000e+00 4.612855743917e+01 0.000000000000e+00 1.864235559841e-02 -4.018905880241e+07 9.785965174208e+03 -1.143871408493e+07 -1.996812634235e+07 2.053960775403e-05 6.468858513054e-07 4.122699060883e-04 0.000000000000e+00 2.386529974323e+07 2.557557310185e+07  4.023950101291e-04
3.400000000000e+01 1.835622427100e+06 1.000000000000e+00 4.643364730800e+01 0.000000000000e+00 1.883685343404e-02 -4.033543979285e+07 9.767040398781e+03 -1.141264480605e+07 -2.011093895035e+07 2.040706783498e-05 6.454800108452e-07 4.185426618867e-04 0.000000000000e+00 2.395300784975e+07 2.570232866461e+07  4.087229253140e-04
3.500000000000e+01 1.866724724140e+06 1.000000000000e+00 4.672750835819e+01 0.000000000000e+00 1.902357941855e-02 -4.047634436827e+07 9.747513231932e+03 -1.138693729131e+07 -2.024828579939e+07 2.027492371217e-05 6.440294213077e-07 4.245989668270e-04 0.000000000000e+00 2.403718915299e+07 2.582529791717e+07  4.148347717141e-04
3.600000000000e+01 1.897454081370e+06 1.000000000000e+00 4.701043929426e+01 0.000000000000e+00 1.920263210114e-02 -4.061196962366e+07 9.728212183125e+03 -1.136179298504e+07 -2.038039079347e+07 2.014417114936e-05 6.425956291107e-07 4.304396551256e-04 0.000000000000e+00 2.411805113406e+07 2.594441452038e+07  4.207308795906e-04
3.700000000000e+01 1.927826208290e+06 1.000000000000e+00 4.728270804192e+01 0.000000000000e+00 1.937414819780e-02 -4.074250359371e+07 9.712035077594e+03 -1.133776321707e+07 -2.050756940296e+07 2.001954347124e-05 6.413939012712e-07 4.360559662887e-04 0.000000000000e+00 2.419594540458e+07 2.605932874951e+07  4.264002587266e-04
3.800000000000e+01 1.957851141680e+06 1.000000000000e+00 4.754456181106e+01 0.000000000000e+00 1.953832863469e-02 -4.086951750008e+07 9.798742351698e+03 -1.133341349470e+07 -2.063594924474e+07 2.007027821514e-05 6.478350130618e-07 4.409859215283e-04 0.000000000000e+00 2.427962674651e+07 2.615641863513e+07  4.313026176484e-04
3.900000000000e+01 1.987546620950e+06 1.000000000000e+00 4.779623193571e+01 0.000000000000e+00 1.969528196019e-02 -4.098951301626e+07 9.741340297628e+03 -1.130269749282e+07 -2.075074765498e+07 1.987724285163e-05 6.435708604738e-07 4.463907425500e-04 0.000000000000e+00 2.434765272136e+07 2.626957232713e+07  4.367928858987e-04
4.000000000000e+01 2.016929925280e+06 1.000000000000e+00 4.803793683095e+01 0.000000000000e+00 1.984517445671e-02 -4.110466230448e+07 9.682764522160e+03 -1.127217457107e+07 -2.086066053992e+07 1.968274787263e-05 6.392195171533e-07 4.516069296556e-04 0.000000000000e+00 2.441249913849e+07 2.637931535804e+07  4.420956796301e-04
4.200000000000e+01 2.074208403470e+06 1.000000000000e+00 4.848775660010e+01 0.000000000000e+00 2.012587603518e-02 -4.131685193601e+07 9.583858196416e+03 -1.121297593088e+07 -2.106385305894e+07 1.934856940784e-05 6.318721900980e-07 4.613528869975e-04 0.000000000000e+00 2.453122697527e+07 2.658446581503e+07  4.519906336539e-04
4.400000000000e+01 2.129970192110e+06 1.000000000000e+00 4.890720119697e+01 0.000000000000e+00 2.038756491354e-02 -4.151366748855e+07 9.487466919243e+03 -1.115474256562e+07 -2.125209369027e+07 1.903007233434e-05 6.247116952223e-07 4.705076354424e-04 0.000000000000e+00 2.464016791481e+07 2.677828163891e+07  4.612883643888e-04
5.000000000000e+01 2.281485240722e+06 1.000000000000e+00 4.980573480116e+01 0.000000000000e+00 2.093498722974e-02 -4.193847084194e+07 9.193249886633e+03 -1.101084429882e+07 -2.165052842771e+07 1.805066659900e-05 6.028555727999e-07 4.906514327426e-04 0.000000000000e+00 2.486661452282e+07 2.721508842950e+07  4.818808565328e-04
6.500000000000e+01 2.612859593381e+06 1.000000000000e+00 5.137611536001e+01 0.000000000000e+00 2.186370413415e-02 -4.263477627525e+07 8.527871860382e+03 -1.063518142213e+07 -2.229528557594e+07 1.613601601034e-05 5.534274908498e-07 5.285527479540e-04 0.000000000000e+00 2.518841442444e+07 2.805019980229e+07  5.206731812040e-04
8.000000000000e+01 2.867909414203e+06 1.000000000000e+00 5.216638751426e+01 0.000000000000e+00 2.230445552304e-02 -4.296847722248e+07 8.003566443755e+03 -1.035802922420e+07 -2.258807588415e+07 1.461647798997e-05 5.144790884718e-07 5.497220410394e-04 0.000000000000e+00 2.530486077694e+07 2.853398415054e+07  5.425622155902e-04
1.000000000000e+02 3.168586946530e+06 1.000000000000e+00 5.286387895362e+01 0.000000000000e+00 2.267344130663e-02 -4.324176387855e+07 7.464447060020e+03 -1.005545128248e+07 -2.282247175350e+07 1.317196305439e-05 4.744302199657e-07 5.696667825931e-04 0.000000000000e+00 2.537322897151e+07 2.899375778186e+07  5.631969364611e-04
1.860000000000e+02 3.767070137304e+06 1.000000000000e+00 5.367399317868e+01 0.000000000000e+00 2.311209652039e-02 -4.345062198665e+07 6.418626732315e+03 -9.357718587280e+06 -2.295748094404e+07 1.042900325906e-05 3.967407099077e-07 6.005971954920e-04 0.000000000000e+00 2.525527383932e+07 2.972581937764e+07  5.954515911829e-04
2.720000000000e+02 4.057393745366e+06 1.000000000000e+00 5.333862578740e+01 0.000000000000e+00 2.277587582618e-02 -4.323450327430e+07 5.844373980488e+03 -9.118984129056e+06 -2.270275146813e+07 8.994889183998e-06 3.540819340577e-07 6.000030948353e-04 0.000000000000e+00 2.501874629050e+07 2.974844885740e+07  5.955569129960e-04
3.580000000000e+02 4.198760828878e+06 1.000000000000e+00 5.291604569850e+01 0.000000000000e+00 2.242404700686e-02 -4.299555458522e+07 5.487827559298e+03 -8.979857101767e+06 -2.244086653820e+07 8.142971666935e-06 3.275956284835e-07 5.954435155945e-04 0.000000000000e+00 2.480542607506e+07 2.967121358945e+07  5.914143475864e-04
4.440000000000e+02 4.270890553149e+06 1.000000000000e+00 5.250802911794e+01 0.000000000000e+00 2.209482778134e-02 -4.277971099226e+07 5.235880594772e+03 -8.900613384912e+06 -2.220915430037e+07 7.553564857096e-06 3.088795682616e-07 5.897803991008e-04 0.000000000000e+00 2.462982622585e+07 2.956398554904e+07  5.860403716719e-04
5.300000000000e+02 4.309855588322e+06 1.000000000000e+00 5.214927465920e+01 0.000000000000e+00 2.180949580682e-02 -4.259610801705e+07 5.052334409267e+03 -8.853732540009e+06 -2.201417620117e+07 7.131060252162e-06 2.952447087669e-07 5.842796439415e-04 0.000000000000e+00 2.448800558608e+07 2.945641908500e+07  5.807471760654e-04
6.160000000000e+02 4.332371405394e+06 1.000000000000e+00 5.184945747612e+01 0.000000000000e+00 2.157301155509e-02 -4.244592450288e+07 4.918510203287e+03 -8.826468310295e+06 -2.185581473585e+07 6.827307780984e-06 2.853034820370e-07 5.794103180476e-04 0.000000000000e+00 2.437606918301e+07 2.935970425882e+07  5.760272219375e-04
7.020000000000e+02 4.346181928998e+06 1.000000000000e+00 5.161929376212e+01 0.000000000000e+00 2.139160499489e-02 -4.233188184527e+07 4.822265913416e+03 -8.809959164467e+06 -2.173595528069e+07 6.611255300215e-06 2.781539062180e-07 5.755715922721e-04 0.000000000000e+00 2.429259876347e+07 2.928304122178e+07  5.722948085524e-04
7.880000000000e+02 4.355800657703e+06 1.000000000000e+00 5.141141553677e+01 0.000000000000e+00 2.122813163548e-02 -4.223309190356e+07 4.752835094636e+03 -8.808560731942e+06 -2.163305193662e+07 6.458471783827e-06 2.729961882515e-07 5.718014098433e-04 0.000000000000e+00 2.422490152404e+07 2.920640889324e+07  5.685998808177e-04
8.740000000000e+02 4.364186902747e+06 1.000000000000e+00 5.110955643582e+01 0.000000000000e+00 2.099704573931e-02 -4.208328709582e+07 4.634471340869e+03 -8.787293987912e+06 -2.147592872759e+07 6.186645450578e-06 2.642034522574e-07 5.667553125721e-04 0.000000000000e+00 2.411550327044e+07 2.910573789122e+07  5.636876388079e-04
9.370000000000e+02 4.369560866174e+06 1.000000000000e+00 5.085470718014e+01 0.000000000000e+00 2.080711076842e-02 -4.195966828026e+07 4.563889553282e+03 -8.782479620044e+06 -2.134811916754e+07 6.030989226663e-06 2.589602337509e-07 5.621869197197e-04 0.000000000000e+00 2.403008902262e+07 2.901255957714e+07  5.591959973569e-04
1.000000000000e+03 4.373750967670e+06 1.000000000000e+00 5.063409317228e+01 0.000000000000e+00 2.064808599400e-02 -4.185101684167e+07 4.513419317800e+03 -8.777029522145e+06 -2.123661374258e+07 5.924984018580e-06 2.552110162579e-07 5.582477218572e-04 0.000000000000e+00 2.395488670213e+07 2.893167480043e+07  5.553091129830e-04
1.100000000000e+03 4.377896344590e+06 1.000000000000e+00 5.039952478691e+01 0.000000000000e+00 2.048171186900e-02 -4.173486091592e+07 4.466125518307e+03 -8.771286966201e+06 -2.111788849777e+07 5.829552167719e-06 2.516977625814e-07 5.540512219851e-04 0.000000000000e+00 2.387467879330e+07 2.884523746034e+07  5.511597407420e-04
1.200000000000e+03 4.381157757110e+06 1.000000000000e+00 5.020666365626e+01 0.000000000000e+00 2.034344839500e-02 -4.163981227436e+07 4.423080428489e+03 -8.766575051778e+06 -2.102040917115e+07 5.739269579664e-06 2.485001273377e-07 5.506055752462e-04 0.000000000000e+00 2.380893216576e+07 2.877469441916e+07  5.477586604848e-04
1.300000000000e+03 4.384063158280e+06 1.000000000000e+00 5.002355940255e+01 0.000000000000e+00 2.021184910640e-02 -4.154977319411e+07 4.381192756140e+03 -8.762261244831e+06 -2.092796965616e+07 5.650110575451e-06 2.453884716775e-07 5.473323346620e-04 0.000000000000e+00 2.374666803170e+07 2.870787607348e+07  5.445294305639e-04
1.400000000000e+03 4.386802694110e+06 1.000000000000e+00 4.983346618981e+01 0.000000000000e+00 2.007587303840e-02 -4.145632914598e+07 4.339033438351e+03 -8.758085475542e+06 -2.083210525988e+07 5.560211929561e-06 2.422566366418e-07 5.439267570879e-04 0.000000000000e+00 2.368217329380e+07 2.863839919366e+07  5.411682372924e-04
1.500000000000e+03 4.389442600510e+06 1.000000000000e+00 4.962660281772e+01 0.000000000000e+00 1.992907992300e-02 -4.135458477591e+07 4.295808676838e+03 -8.753943771262e+06 -2.072789220432e+07 5.468517896975e-06 2.390456543579e-07 5.402098211833e-04 0.000000000000e+00 2.361214025050e+07 2.856254358560e+07  5.374965859837e-04
1.600000000000e+03 4.392003663130e+06 1.000000000000e+00 4.939698227315e+01 0.000000000000e+00 1.976752180740e-02 -4.124155259607e+07 4.251039888911e+03 -8.749792972934e+06 -2.061232553968e+07 5.374379890525e-06 2.357199729691e-07 5.360715175775e-04 0.000000000000e+00 2.353455703623e+07 2.847805505715e+07  5.334047905905e-04
1.700000000000e+03 4.394490967350e+06 1.000000000000e+00 4.914090603614e+01 0.000000000000e+00 1.958875601360e-02 -4.111539011688e+07 4.204420603893e+03 -8.745612093202e+06 -2.048355156040e+07 5.277381315574e-06 2.322568260820e-07 5.314437738800e-04 0.000000000000e+00 2.344818459016e+07 2.838357465614e+07  5.288249861122e-04
1.800000000000e+03 4.396904398280e+06 1.000000000000e+00 4.885614509573e+01 0.000000000000e+00 1.939130946880e-02 -4.097498645691e+07 4.155762066296e+03 -8.741386397024e+06 -2.034045231225e+07 5.177259468763e-06 2.286421918605e-07 5.262856133780e-04 0.000000000000e+00 2.335227505539e+07 2.827832567458e+07  5.237163263838e-04
1.900000000000e+03 4.399243705860e+06 1.000000000000e+00 4.854145211274e+01 0.000000000000e+00 1.917434646960e-02 -4.081972575835e+07 4.104981525362e+03 -8.737126436692e+06 -2.018240955792e+07 5.073925968778e-06 2.248699231055e-07 5.205736810296e-04 0.000000000000e+00 2.324642058432e+07 2.816191227546e+07  5.180555003917e-04
2.000000000000e+03 4.401508073670e+06 1.000000000000e+00 4.819625178811e+01 0.000000000000e+00 1.893748703050e-02 -4.064931753685e+07 4.052013642087e+03 -8.732816781793e+06 -2.000913011576e+07 4.967280630049e-06 2.209351660622e-07 5.142976603599e-04 0.000000000000e+00 2.313042147813e+07 2.803422638618e+07  5.118322410313e-04