 TITLE = "Time curves in points"
 VARIABLES = "TIME"  "PRESSURE1"  "SATURATION1"  "TEMPERATURE1"  "DISPLACEMENT_X1"  "DISPLACEMENT_Y1"  "STRESS_XX"  "STRESS_XY"  "STRESS_YY"  "STRESS_ZZ"  "STRAIN_XX"  "STRAIN_XY"  "STRAIN_YY"  "STRAIN_PLS"  p_(1st_Invariant)  q_(2nd_Invariant)   Effective_Strain
 ZONE T="POINT=POINT8"
0.000000000000e+00 1.000000000000e+05 1.000000000000e+00 2.500000000000e+01 0.000000000000e+00 0.000000000000e+00 -4.412650038076e+07 3.434517957524e+07 -1.549832034921e+07 -1.488439621899e+07 0.000000000000e+00 0.000000000000e+00 0.000000000000e+00 0.000000000000e+00 2.483640564965e+07 6.615360311765e+07  0.000000000000e+00
1.000000000000e-03 1.897522717761e+05 1.000000000000e+00 2.500000402545e+01 -1.291330815549e-06 6.276123750717e-05 -4.420660751258e+07 3.434644107203e+07 -1.550963572908e+07 -1.491182511693e+07 -1.956620115688e-06 9.371119000362e-08 5.985020997159e-07 0.000000000000e+00 2.487602278619e+07 6.618204412288e+07  2.320334814087e-06
2.000000000000e-03 2.084844070581e+05 1.000000000000e+00 2.500004129614e+01 -7.246996521079e-07 6.217375537117e-05 -4.420303325815e+07 3.434618914737e+07 -1.549902613411e+07 -1.490758812900e+07 -1.981235931610e-06 7.499678677813e-08 8.351989323846e-07 0.000000000000e+00 2.486988250709e+07 6.618329541088e+07  2.508874800049e-06
3.000000000000e-03 2.212358636005e+05 1.000000000000e+00 2.500021259078e+01 -1.367835989873e-07 6.169635732433e-05 -4.420333253379e+07 3.434608226084e+07 -1.548998894958e+07 -1.490504481557e+07 -2.086817811040e-06 6.705664479042e-08 1.076399859180e-06 0.000000000000e+00 2.486612209965e+07 6.618575421741e+07  2.788043294515e-06
4.000000000000e-03 2.299404161370e+05 1.000000000000e+00 2.500074197247e+01 5.240531559666e-07 6.118470174628e-05 -4.420713461720e+07 3.434603586999e+07 -1.548190555233e+07 -1.490398966330e+07 -2.267229422029e-06 6.361046770211e-08 1.337448958383e-06 0.000000000000e+00 2.486434327761e+07 6.618930485997e+07  3.158091428712e-06
1.000000000000e-02 2.422636896225e+05 1.000000000000e+00 2.508100420461e+01 7.862087881823e-06 5.838884275805e-05 -4.429623340583e+07 3.434598358697e+07 -1.544737496983e+07 -1.495015933175e+07 -3.861739600101e-06 5.972658561759e-08 4.334886850764e-06 0.000000000000e+00 2.489792256914e+07 6.622528011020e+07  7.103181171598e-06
2.000000000000e-02 2.389194442018e+05 1.000000000000e+00 2.543889432663e+01 2.406506598618e-05 5.657340610769e-05 -4.450401770466e+07 3.434594609157e+07 -1.545435969100e+07 -1.514408937389e+07 -4.376326277231e-06 5.694121351385e-08 1.127857020091e-05 0.000000000000e+00 2.503415558985e+07 6.627159409400e+07  1.399023972299e-05
3.000000000000e-02 2.281317474452e+05 1.000000000000e+00 2.593499907333e+01 4.096294517790e-05 5.692583239390e-05 -4.472192567948e+07 3.434592461187e+07 -1.551666715500e+07 -1.540585850358e+07 -2.747197668076e-06 5.534557870021e-08 1.868714635520e-05 0.000000000000e+00 2.521481711269e+07 6.629572544052e+07  2.020155954914e-05
4.000000000000e-02 2.144253653967e+05 1.000000000000e+00 2.649268611841e+01 5.719333679817e-05 5.960952658267e-05 -4.493087480304e+07 3.434590708226e+07 -1.561007502939e+07 -1.569517109873e+07 2.377312768665e-07 5.404337862744e-08 2.596360741193e-05 0.000000000000e+00 2.541204031039e+07 6.630343472103e+07  2.584573130169e-05
5.000000000000e-02 1.999260184664e+05 1.000000000000e+00 2.706394563609e+01 7.224361090976e-05 6.329476095333e-05 -4.512536666124e+07 3.434589359896e+07 -1.572052053156e+07 -1.598933071262e+07 3.939676488209e-06 5.304176210700e-08 3.278727441860e-05 0.000000000000e+00 2.561173930181e+07 6.630033283585e+07  3.100586397407e-05
6.000000000000e-02 1.852654330480e+05 1.000000000000e+00 2.762301486876e+01 8.597258622958e-05 6.929638161277e-05 -4.530153977816e+07 3.434587995650e+07 -1.583237030978e+07 -1.627358099872e+07 7.953971343832e-06 5.202832246830e-08 3.919072185469e-05 0.000000000000e+00 2.580249702889e+07 6.629134870723e+07  3.588125669334e-05
7.000000000000e-02 1.713197479364e+05 1.000000000000e+00 2.815767675716e+01 9.848098877216e-05 7.531180299369e-05 -4.546341139152e+07 3.434587138204e+07 -1.594600436318e+07 -1.654508894275e+07 1.202617791122e-05 5.139136213584e-08 4.505460922077e-05 0.000000000000e+00 2.598483489915e+07 6.627872539213e+07  4.040692940816e-05
8.000000000000e-02 1.587386335393e+05 1.000000000000e+00 2.866318602226e+01 1.099088621178e-04 8.211478259223e-05 -4.561159851549e+07 3.434586225084e+07 -1.605505825242e+07 -1.680057420886e+07 1.601153747659e-05 5.071304498935e-08 5.049348893335e-05 0.000000000000e+00 2.615574365892e+07 6.626480781865e+07  4.469330019237e-05
9.000000000000e-02 1.484204296669e+05 1.000000000000e+00 2.913867303407e+01 1.204211938728e-04 8.830341354153e-05 -4.574984416578e+07 3.434585141617e+07 -1.616175644708e+07 -1.704160345181e+07 1.982921377531e-05 4.990818334091e-08 5.548292786970e-05 0.000000000000e+00 2.631773468822e+07 6.625034795192e+07  4.869679290069e-05
1.000000000000e-01 1.413689395457e+05 1.000000000000e+00 2.958516568313e+01 1.300984957620e-04 9.384332493962e-05 -4.587910589364e+07 3.434584361024e+07 -1.626579000766e+07 -1.726879140882e+07 2.346647371521e-05 4.932831440461e-08 6.005723402268e-05 0.000000000000e+00 2.647122910337e+07 6.623566420097e+07  5.242349228474e-05
2.000000000000e-01 1.609113465756e+05 1.000000000000e+00 3.249981870886e+01 1.882156463911e-04 1.886696515262e-04 -4.665658501857e+07 3.434580862497e+07 -1.684379606266e+07 -1.869914357322e+07 4.771604375239e-05 4.672940864698e-08 9.171580380001e-05 0.000000000000e+00 2.739984155148e+07 6.615009694816e+07  7.944998893686e-05
3.000000000000e-01 1.897684167318e+05 1.000000000000e+00 3.456723702578e+01 2.292811970272e-04 2.983394524783e-04 -4.721344692313e+07 3.434579194763e+07 -1.714594565201e+07 -1.968209032711e+07 6.354205244217e-05 4.549052059102e-08 1.170025556262e-04 0.000000000000e+00 2.801382763408e+07 6.612965600084e+07  1.014525215769e-04
4.000000000000e-01 2.191248737762e+05 1.000000000000e+00 3.613366903686e+01 2.601291828139e-04 4.037695057823e-04 -4.765363837247e+07 3.434578422072e+07 -1.732682747723e+07 -2.041753089872e+07 7.450844841213e-05 4.491652152569e-08 1.376004519205e-04 0.000000000000e+00 2.846599891614e+07 6.613951473761e+07  1.193021505782e-04
5.000000000000e-01 2.469765835129e+05 1.000000000000e+00 3.737981490638e+01 2.847842256063e-04 5.061884163671e-04 -4.802417537856e+07 3.434578725921e+07 -1.742688402484e+07 -2.099536287911e+07 8.220797602888e-05 4.514223833703e-08 1.553463965669e-04 0.000000000000e+00 2.881547409417e+07 6.617130646806e+07  1.346103544212e-04
6.000000000000e-01 2.728380511316e+05 1.000000000000e+00 3.840699932437e+01 3.049689957947e-04 6.060516030523e-04 -4.834427712355e+07 3.434578772918e+07 -1.747474093138e+07 -2.146557413989e+07 8.778347232979e-05 4.517714980407e-08 1.710338440099e-04 0.000000000000e+00 2.909486406494e+07 6.621600447372e+07  1.481370150263e-04
7.000000000000e-01 2.968189504268e+05 1.000000000000e+00 3.927684797067e+01 3.216731879212e-04 7.035413442409e-04 -4.862582963125e+07 3.434578657501e+07 -1.748924395479e+07 -2.185903594343e+07 9.194010331817e-05 4.509141136506e-08 1.851094558433e-04 0.000000000000e+00 2.932470317649e+07 6.626779620099e+07  1.603106884929e-04
8.000000000000e-01 3.191955069579e+05 1.000000000000e+00 4.002870654053e+01 3.353966610160e-04 7.988244390760e-04 -4.887433482488e+07 3.434578113715e+07 -1.748386440606e+07 -2.219525260071e+07 9.519795768205e-05 4.468745638154e-08 1.977973149236e-04 0.000000000000e+00 2.951781727722e+07 6.632167191682e+07  1.713374871795e-04
9.000000000000e-01 3.400202934397e+05 1.000000000000e+00 4.068907690810e+01 3.470955974186e-04 8.918644585710e-04 -4.910145967632e+07 3.434577403229e+07 -1.746105072616e+07 -2.248775740610e+07 9.762635597189e-05 4.415966712505e-08 2.095091443772e-04 0.000000000000e+00 2.968342260286e+07 6.637946056715e+07  1.815802260707e-04
1.000000000000e+00 3.594526905246e+05 1.000000000000e+00 4.127662943240e+01 3.570210156011e-04 9.827211798002e-04 -4.930942313319e+07 3.434576231151e+07 -1.742630506034e+07 -2.274541511905e+07 9.947214262619e-05 4.328898051531e-08 2.203698413029e-04 0.000000000000e+00 2.982704777086e+07 6.643892309555e+07  1.911463299458e-04
2.000000000000e+00 4.898300370408e+05 1.000000000000e+00 4.458659385047e+01 3.953849722665e-04 1.735943736016e-03 -5.069822637536e+07 3.434568098679e+07 -1.680518574430e+07 -2.413385350381e+07 9.945859077959e-05 3.724771560535e-08 2.950105559043e-04 0.000000000000e+00 3.054575520782e+07 6.702935288024e+07  2.599652080215e-04
3.000000000000e+00 5.912502393109e+05 1.000000000000e+00 4.679648586261e+01 4.114506616601e-04 2.378634936756e-03 -5.176599038476e+07 3.434575183724e+07 -1.613249496156e+07 -2.502520574418e+07 9.290615364404e-05 4.251089135267e-08 3.531035824767e-04 0.000000000000e+00 3.097456369683e+07 6.760798724974e+07  3.170302873205e-04
4.000000000000e+00 6.763376842059e+05 1.000000000000e+00 4.845563679296e+01 4.184308194190e-04 2.938978676289e-03 -5.264237283997e+07 3.434586327526e+07 -1.549094441925e+07 -2.567565621091e+07 8.451439407213e-05 5.078914426734e-08 4.010921913840e-04 0.000000000000e+00 3.126965782338e+07 6.815053462177e+07  3.662233922230e-04
5.000000000000e+00 7.512946355432e+05 1.000000000000e+00 4.980826726303e+01 4.216485312370e-04 3.436310691241e-03 -5.339036294896e+07 3.434600548056e+07 -1.490607781487e+07 -2.619734251006e+07 7.610882399226e-05 6.135296705651e-08 4.421927278011e-04 0.000000000000e+00 3.149792775796e+07 6.865086225283e+07  4.094779657214e-04
6.000000000000e+00 8.193404637507e+05 1.000000000000e+00 5.098668253450e+01 4.241666408802e-04 3.885062711993e-03 -5.405707822504e+07 3.434613604178e+07 -1.437535010460e+07 -2.665000750331e+07 6.815838491547e-05 7.105180045782e-08 4.787187425028e-04 0.000000000000e+00 3.169414527765e+07 6.911727950531e+07  4.485404314942e-04
7.000000000000e+00 8.825714157559e+05 1.000000000000e+00 5.199331978804e+01 4.250391383823e-04 4.292290286842e-03 -5.463846953602e+07 3.434623672298e+07 -1.389045368652e+07 -2.703067051780e+07 6.070276247444e-05 7.853097523811e-08 5.108680928554e-04 0.000000000000e+00 3.185319791345e+07 6.954581411868e+07  4.833838512763e-04
8.000000000000e+00 9.416537060918e+05 1.000000000000e+00 5.293566927960e+01 4.262014775809e-04 4.667718962885e-03 -5.517199105304e+07 3.434630643432e+07 -1.345777836147e+07 -2.739028646046e+07 5.424341256991e-05 8.370953164147e-08 5.402960542276e-04 0.000000000000e+00 3.200668529166e+07 6.994292682807e+07  5.153199911352e-04
9.000000000000e+00 9.976178889083e+05 1.000000000000e+00 5.379586488110e+01 4.272996246090e-04 5.015840725973e-03 -5.566118741563e+07 3.434636869031e+07 -1.305854501688e+07 -2.771790574408e+07 4.824197820800e-05 8.833426247030e-08 5.672934375613e-04 0.000000000000e+00 3.214587939219e+07 7.031624008764e+07  5.447768336833e-04
1.000000000000e+01 1.050959049152e+06 1.000000000000e+00 5.457935807192e+01 4.283110659374e-04 5.340013596035e-03 -5.611198676322e+07 3.434642740986e+07 -1.268530062508e+07 -2.801496894579e+07 4.253177850398e-05 9.269628591445e-08 5.921905767485e-04 0.000000000000e+00 3.227075211136e+07 7.066958562535e+07  5.721116488132e-04
1.100000000000e+01 1.101971525748e+06 1.000000000000e+00 5.531115847719e+01 4.290921948979e-04 5.643854193034e-03 -5.652804413268e+07 3.434643454511e+07 -1.234116205320e+07 -2.829229363939e+07 3.737885054355e-05 9.322633352170e-08 6.152734980383e-04 0.000000000000e+00 3.238716660842e+07 7.100085263036e+07  5.974616856360e-04
1.200000000000e+01 1.151043677121e+06 1.000000000000e+00 5.598519287632e+01 4.295568197337e-04 5.929339023580e-03 -5.691245045224e+07 3.434646291877e+07 -1.201895379209e+07 -2.854648874468e+07 3.254243401355e-05 9.533409087455e-08 6.366827659330e-04 0.000000000000e+00 3.249263099634e+07 7.131370950862e+07  6.210513463600e-04
1.300000000000e+01 1.198431142852e+06 1.000000000000e+00 5.660414097440e+01 4.297826721186e-04 6.198058440135e-03 -5.726868498795e+07 3.434648790331e+07 -1.171352343101e+07 -2.877798679836e+07 2.790936468084e-05 9.719008576038e-08 6.566258213383e-04 0.000000000000e+00 3.258673173911e+07 7.161101844542e+07  6.431255093030e-04
1.400000000000e+01 1.244848089696e+06 1.000000000000e+00 5.717202786384e+01 4.297453457544e-04 6.451554765250e-03 -5.759848978040e+07 3.434649526572e+07 -1.142272720782e+07 -2.898807545522e+07 2.346276535922e-05 9.773700724602e-08 6.752301168831e-04 0.000000000000e+00 3.266976414781e+07 7.189363232686e+07  6.638098183712e-04
1.500000000000e+01 1.289842830218e+06 1.000000000000e+00 5.769272757371e+01 4.294093759761e-04 6.690758793764e-03 -5.790374331961e+07 3.434649774935e+07 -1.114677856542e+07 -2.917873793186e+07 1.920652589183e-05 9.792150534969e-08 6.925613870185e-04 0.000000000000e+00 3.274308660563e+07 7.216156418766e+07  6.831606663005e-04
1.600000000000e+01 1.333555268483e+06 1.000000000000e+00 5.816975980579e+01 4.289182006268e-04 6.916684997548e-03 -5.818766783907e+07 3.434649794318e+07 -1.088274306789e+07 -2.935129240301e+07 1.506992409785e-05 9.793590438977e-08 7.087775858555e-04 0.000000000000e+00 3.280723443666e+07 7.241709499906e+07  7.013640803297e-04
1.700000000000e+01 1.376119091317e+06 1.000000000000e+00 5.860621954810e+01 4.284655686094e-04 7.130223123987e-03 -5.845415950112e+07 3.434649161761e+07 -1.062764490926e+07 -2.950709816537e+07 1.095873353771e-05 9.746600489264e-08 7.240397314923e-04 0.000000000000e+00 3.286296752525e+07 7.266302543888e+07  7.186230560112e-04
1.800000000000e+01 1.417665494257e+06 1.000000000000e+00 5.900482333236e+01 4.280804648146e-04 7.332158721929e-03 -5.870466735151e+07 3.434648183886e+07 -1.038028841800e+07 -2.964718197401e+07 6.857269129947e-06 9.673958308307e-08 7.384303712026e-04 0.000000000000e+00 3.291071258117e+07 7.290020964069e+07  7.350257461755e-04
1.900000000000e+01 1.458284177490e+06 1.000000000000e+00 5.936796184715e+01 4.277842586321e-04 7.523183454940e-03 -5.894054094806e+07 3.434646574948e+07 -1.013991845315e+07 -2.977255884937e+07 2.753105200046e-06 9.554437234165e-08 7.520152538392e-04 0.000000000000e+00 3.295100608352e+07 7.312930589514e+07  7.506425060409e-04
2.000000000000e+01 1.498058933073e+06 1.000000000000e+00 5.969774740414e+01 4.272127751951e-04 7.703918351137e-03 -5.915828757395e+07 3.434641423270e+07 -9.910507489446e+06 -2.988411198865e+07 -1.191224302491e-06 9.171741159440e-08 7.646796348071e-04 0.000000000000e+00 3.298430235068e+07 7.334617611030e+07  7.652759587920e-04
2.100000000000e+01 1.536914098402e+06 1.000000000000e+00 6.002784237796e+01 4.270338274569e-04 7.876634957941e-03 -5.936869652476e+07 3.434639239737e+07 -9.695198178056e+06 -2.999786876931e+07 -4.781162050939e-06 9.009535863324e-08 7.769020896546e-04 0.000000000000e+00 3.302058782404e+07 7.355388643186e+07  7.793036863509e-04
2.200000000000e+01 1.575000746812e+06 1.000000000000e+00 6.034057872358e+01 4.270212206549e-04 8.041737661628e-03 -5.957007589893e+07 3.434636965071e+07 -9.486802131141e+06 -3.010492088587e+07 -8.284745905272e-06 8.840560623459e-08 7.886187357265e-04 0.000000000000e+00 3.305393297198e+07 7.375525452917e+07  7.927935901871e-04
2.300000000000e+01 1.612388172488e+06 1.000000000000e+00 6.063232558030e+01 4.267170520807e-04 8.199514145067e-03 -5.975744517250e+07 3.434633091323e+07 -9.288188754365e+06 -3.020335945315e+07 -1.158788642447e-05 8.552796510411e-08 7.996520936487e-04 0.000000000000e+00 3.308299779334e+07 7.394611847376e+07  8.055085657979e-04
2.400000000000e+01 1.649122696109e+06 1.000000000000e+00 6.090262542673e+01 4.262890269384e-04 8.350227508124e-03 -5.993326085814e+07 3.434630087435e+07 -9.096236889283e+06 -3.029282428064e+07 -1.479520401297e-05 8.329650572418e-08 8.101047136585e-04 0.000000000000e+00 3.310744067602e+07 7.412915791395e+07  8.176027338988e-04
2.500000000000e+01 1.685258508133e+06 1.000000000000e+00 6.115184454688e+01 4.258044653224e-04 8.494138038043e-03 -6.009879832341e+07 3.434627414408e+07 -8.909796404793e+06 -3.037348096720e+07 -1.794791865075e-05 8.131082841139e-08 8.200254657262e-04 0.000000000000e+00 3.312735856514e+07 7.430544209487e+07  8.291451395311e-04
2.600000000000e+01 1.720830930678e+06 1.000000000000e+00 6.138059466342e+01 4.253363453741e-04 8.631492515060e-03 -6.025541306129e+07 3.434624432595e+07 -8.727898041101e+06 -3.044565942658e+07 -2.108412328074e-05 7.909576687780e-08 8.294626048689e-04 0.000000000000e+00 3.314299017633e+07 7.447601752007e+07  8.402031086093e-04
2.700000000000e+01 1.755869154182e+06 1.000000000000e+00 6.158955581002e+01 4.249038717110e-04 8.762525271219e-03 -6.040365685265e+07 3.434621691926e+07 -8.550062198632e+06 -3.050961930521e+07 -2.421466861086e-05 7.705984188318e-08 8.384435887952e-04 0.000000000000e+00 3.315444611883e+07 7.464129757627e+07  8.508094106402e-04
2.800000000000e+01 1.790413798117e+06 1.000000000000e+00 6.177940892914e+01 4.245559348616e-04 8.887457803254e-03 -6.054442610902e+07 3.434618703338e+07 -8.375484467981e+06 -3.056562652274e+07 -2.736297291013e-05 7.483974768978e-08 8.470081725850e-04 0.000000000000e+00 3.316184569991e+07 7.480204771054e+07  8.610158274947e-04
2.900000000000e+01 1.824490651884e+06 1.000000000000e+00 6.195081186402e+01 4.243150172026e-04 9.006497679879e-03 -6.067836875520e+07 3.434615408451e+07 -8.203876392145e+06 -3.061401915713e+07 -3.054054477698e-05 7.239211752157e-08 8.551796275362e-04 0.000000000000e+00 3.316542143483e+07 7.495866116282e+07  8.708516450333e-04
3.000000000000e+01 1.858108449564e+06 1.000000000000e+00 6.210439119759e+01 4.241659411871e-04 9.119846391400e-03 -6.080546692175e+07 3.434612716961e+07 -8.035086298378e+06 -3.065496564608e+07 -3.374046423063e-05 7.039272478596e-08 8.629698434655e-04 0.000000000000e+00 3.316517295540e+07 7.511112916645e+07  8.803251601870e-04
3.100000000000e+01 1.891186849834e+06 1.000000000000e+00 6.226590502672e+01 4.245340158143e-04 9.229052934629e-03 -6.093282603791e+07 3.434609400285e+07 -7.873517294728e+06 -3.070098614465e+07 -3.676161288368e-05 6.792890816868e-08 8.706803106910e-04 0.000000000000e+00 3.316910982576e+07 7.526045695199e+07  8.896309605544e-04
3.200000000000e+01 1.923803508599e+06 1.000000000000e+00 6.242060102855e+01 4.251653877971e-04 9.334225803368e-03 -6.105773474107e+07 3.434605952403e+07 -7.714342913060e+06 -3.074460819647e+07 -3.978083136237e-05 6.536762435955e-08 8.782127496491e-04 0.000000000000e+00 3.317222861687e+07 7.540791417556e+07  8.987637032630e-04
3.300000000000e+01 1.955985196901e+06 1.000000000000e+00 6.256492306584e+01 4.259943787596e-04 9.435421607076e-03 -6.117960187035e+07 3.434602585030e+07 -7.556380453021e+06 -3.078405121880e+07 -4.284229819213e-05 6.286614752220e-08 8.855449532798e-04 0.000000000000e+00 3.317334451406e+07 7.555382523090e+07  9.077246937267e-04
3.400000000000e+01 1.987757367210e+06 1.000000000000e+00 6.269791394810e+01 4.269822092671e-04 9.532668575177e-03 -6.129810372522e+07 3.434599505569e+07 -7.399580957915e+06 -3.081886787313e+07 -4.595060564050e-05 6.057854808887e-08 8.926621245446e-04 0.000000000000e+00 3.317218418542e+07 7.569802451992e+07  9.165017746954e-04
3.500000000000e+01 2.019156671974e+06 1.000000000000e+00 6.281934767946e+01 4.283011549775e-04 9.626030122338e-03 -6.141546654750e+07 3.434595779619e+07 -7.241691264451e+06 -3.084897085775e+07 -4.919168532528e-05 5.781069934169e-08 8.996447097305e-04 0.000000000000e+00 3.316870955657e+07 7.584286762311e+07  9.252218518512e-04
3.600000000000e+01 2.050221244270e+06 1.000000000000e+00 6.292925655316e+01 4.301487348146e-04 9.715554650785e-03 -6.153422270778e+07 3.434592762276e+07 -7.080273086901e+06 -3.087439966200e+07 -5.265812997769e-05 5.556924445341e-08 9.065847404831e-04 0.000000000000e+00 3.316296515223e+07 7.599103336444e+07  9.340277494237e-04
3.700000000000e+01 2.081022622880e+06 1.000000000000e+00 6.302778449203e+01 4.332547373616e-04 9.801308348993e-03 -6.166360237142e+07 3.434596377242e+07 -6.906824212917e+06 -3.089542304499e+07 -5.668279183012e-05 5.825464768780e-08 9.138079957423e-04 0.000000000000e+00 3.315528320977e+07 7.615218267399e+07  9.434273636843e-04
3.800000000000e+01 2.113330364229e+06 1.000000000000e+00 6.311537564157e+01 4.603422586678e-04 9.883304882814e-03 -6.208721309347e+07 3.434803489542e+07 -6.456451198670e+06 -3.091781107883e+07 -7.158534882127e-05 2.121094995748e-07 9.313676918139e-04 0.000000000000e+00 3.315382512366e+07 7.662700707061e+07  9.691453222254e-04
3.900000000000e+01 2.143157947788e+06 1.000000000000e+00 6.319159883550e+01 4.559697926944e-04 9.961885677589e-03 -6.211254224948e+07 3.434556556515e+07 -6.373533648559e+06 -3.092697177246e+07 -7.218589170945e-05 2.867353614130e-08 9.347877408672e-04 0.000000000000e+00 3.313768255683e+07 7.668101281749e+07  9.728912644985e-04
4.000000000000e+01 2.172544101843e+06 1.000000000000e+00 6.325687785189e+01 4.502268046069e-04 1.003682869672e-02 -6.211691741782e+07 3.434556662155e+07 -6.311123597602e+06 -3.093216800278e+07 -7.215539512144e-05 2.875201170008e-08 9.372988313148e-04 0.000000000000e+00 3.312006967273e+07 7.671596550561e+07  9.753802695511e-04
4.200000000000e+01 2.229827605392e+06 1.000000000000e+00 6.339719070174e+01 4.400231103110e-04 1.017717400715e-02 -6.212810596788e+07 3.434556673693e+07 -6.196776571517e+06 -3.094993486411e+07 -7.191105784558e-05 2.876058307682e-08 9.422059185617e-04 0.000000000000e+00 3.309160580117e+07 7.678156853622e+07  9.801419387042e-04
4.400000000000e+01 2.285593809494e+06 1.000000000000e+00 6.351556358873e+01 4.304292603283e-04 1.030801347223e-02 -6.213406320839e+07 3.434556720171e+07 -6.084650397520e+06 -3.095912390742e+07 -7.179101945596e-05 2.879510944778e-08 9.467119123472e-04 0.000000000000e+00 3.305927917111e+07 7.684354516711e+07  9.845724002127e-04
5.000000000000e+01 2.437116678573e+06 1.000000000000e+00 6.356115187484e+01 4.072512940271e-04 1.058171359976e-02 -6.209301726730e+07 3.434556807159e+07 -5.783991770388e+06 -3.087139676311e+07 -7.352489271831e-05 2.885972905726e-08 9.546207959950e-04 0.000000000000e+00 3.291613526693e+07 7.698240742387e+07  9.934259751518e-04
6.500000000000e+01 2.768502507756e+06 1.000000000000e+00 6.327264371380e+01 3.691446142193e-04 1.104605317240e-02 -6.187666489615e+07 3.434556835551e+07 -5.079368878363e+06 -3.049188531058e+07 -7.958508716958e-05 2.888082020781e-08 9.666963637476e-04 0.000000000000e+00 3.248263969503e+07 7.724778835009e+07  1.008846005424e-03
8.000000000000e+01 3.023556374630e+06 1.000000000000e+00 6.265086950878e+01 3.468652233540e-04 1.126641825321e-02 -6.162099109155e+07 3.434557121539e+07 -4.548106159430e+06 -3.003646065422e+07 -8.700440452088e-05 2.909326885518e-08 9.695132060718e-04 0.000000000000e+00 3.206851930173e+07 7.740239836382e+07  1.015813735319e-03
1.000000000000e+02 3.324236305531e+06 1.000000000000e+00 6.190767060370e+01 3.284579229366e-04 1.145090327880e-02 -6.132249048230e+07 3.434557365291e+07 -3.993917798426e+06 -2.951890573201e+07 -9.514070757351e-05 2.927434141769e-08 9.708738766555e-04 0.000000000000e+00 3.161177133758e+07 7.754762676972e+07  1.021771730266e-03
1.860000000000e+02 3.922717201764e+06 1.000000000000e+00 5.994700809414e+01 3.035269090530e-04 1.167023033326e-02 -6.056404357424e+07 3.434557588071e+07 -2.786178201664e+06 -2.823974486893e+07 -1.144815116175e-04 2.943983535018e-08 9.682210867636e-04 0.000000000000e+00 3.052998888161e+07 7.780982446116e+07  1.030243420532e-03
2.720000000000e+02 4.213038211969e+06 1.000000000000e+00 5.827378534171e+01 3.041326472955e-04 1.150214087274e-02 -6.007333402568e+07 3.434557745385e+07 -2.316347729010e+06 -2.736446285154e+07 -1.287656318880e-04 2.955669660284e-08 9.531614579594e-04 0.000000000000e+00 2.991804820208e+07 7.781664325381e+07  1.023636553148e-03
3.580000000000e+02 4.354403691727e+06 1.000000000000e+00 5.705890390729e+01 3.088736588281e-04 1.132624782887e-02 -5.973016211681e+07 3.434557705944e+07 -2.041142691758e+06 -2.675288092003e+07 -1.387351470147e-04 2.952739826765e-08 9.406674590298e-04 0.000000000000e+00 2.950806190954e+07 7.779429935701e+07  1.017156010812e-03
4.440000000000e+02 4.426532453840e+06 1.000000000000e+00 5.611635431592e+01 3.142750556018e-04 1.116165848607e-02 -5.947653232341e+07 3.434557850297e+07 -1.872535102778e+06 -2.629573864388e+07 -1.462941820883e-04 2.963463148245e-08 9.299504563634e-04 0.000000000000e+00 2.921493535669e+07 7.776050093855e+07  1.011066853890e-03
5.300000000000e+02 4.465496889446e+06 1.000000000000e+00 5.538231376721e+01 3.193682390890e-04 1.101901173875e-02 -5.928554480501e+07 3.434557922251e+07 -1.764419589561e+06 -2.594868875471e+07 -1.520907844309e-04 2.968808317672e-08 9.210757509710e-04 0.000000000000e+00 2.899955104976e+07 7.772585658968e+07  1.005782919852e-03
6.160000000000e+02 4.488012314786e+06 1.000000000000e+00 5.481765606841e+01 3.238050238114e-04 1.090078787305e-02 -5.914251499158e+07 3.434557830673e+07 -1.694975403506e+06 -2.568703188942e+07 -1.564969320715e-04 2.962005355083e-08 9.139364228851e-04 0.000000000000e+00 2.884150742817e+07 7.769433835257e+07  1.001398683715e-03
7.020000000000e+02 4.501822576458e+06 1.000000000000e+00 5.440041979532e+01 3.272889438842e-04 1.081010037926e-02 -5.903843699617e+07 3.434557959336e+07 -1.649281483056e+06 -2.549586810104e+07 -1.597315472390e-04 2.971563220518e-08 9.085332563619e-04 0.000000000000e+00 2.872786219342e+07 7.766914386533e+07  9.980321991322e-04
7.880000000000e+02 4.511441113274e+06 1.000000000000e+00 5.406843927210e+01 3.305530618541e-04 1.072837939386e-02 -5.896097958422e+07 3.434557874503e+07 -1.630127537552e+06 -2.535055818754e+07 -1.622517830109e-04 2.965261322298e-08 9.038474632650e-04 0.000000000000e+00 2.864722176977e+07 7.764296017369e+07  9.949455980420e-04
8.740000000000e+02 4.519827167133e+06 1.000000000000e+00 5.354181640403e+01 3.349456619698e-04 1.061285232255e-02 -5.882937401673e+07 3.434557939129e+07 -1.571877208409e+06 -2.510903027936e+07 -1.663346128078e-04 2.970062134784e-08 8.970400103293e-04 0.000000000000e+00 2.850342716817e+07 7.761183234388e+07  9.907354788172e-04
9.370000000000e+02 4.525201002277e+06 1.000000000000e+00 5.316712255178e+01 3.389768653823e-04 1.051789664411e-02 -5.874007000634e+07 3.434557975675e+07 -1.548172352475e+06 -2.494385240955e+07 -1.691527847296e-04 2.972776974120e-08 8.917852983851e-04 0.000000000000e+00 2.841069825612e+07 7.758275716742e+07  9.872900547720e-04
1.000000000000e+03 4.529391016053e+06 1.000000000000e+00 5.286584965629e+01 3.426269504398e-04 1.043839520061e-02 -5.866714425065e+07 3.434557972774e+07 -1.529425518041e+06 -2.481082026642e+07 -1.713853076912e-04 2.972561483862e-08 8.875404154909e-04 0.000000000000e+00 2.833579667837e+07 7.755870679082e+07  9.844858062310e-04
1.100000000000e+03 4.533536316160e+06 1.000000000000e+00 5.255967195153e+01 3.466040015990e-04 1.035522226904e-02 -5.859271041440e+07 3.434558014281e+07 -1.511599296421e+06 -2.467590780791e+07 -1.736316565183e-04 2.975644802099e-08 8.831914981205e-04 0.000000000000e+00 2.826007250624e+07 7.753354495443e+07  9.815931845707e-04
1.200000000000e+03 4.536797682875e+06 1.000000000000e+00 5.229905566997e+01 3.497879349669e-04 1.028610373811e-02 -5.852960040810e+07 3.434557956663e+07 -1.495525256028e+06 -2.456086464043e+07 -1.755606025050e-04 2.971364641021e-08 8.795155019716e-04 0.000000000000e+00 2.819533010152e+07 7.751284936587e+07  9.791717507402e-04
1.300000000000e+03 4.539703052078e+06 1.000000000000e+00 5.204954421879e+01 3.527774483721e-04 1.022031555077e-02 -5.846932285829e+07 3.434557994383e+07 -1.480053439117e+06 -2.445073853639e+07 -1.774121202334e-04 2.974166682214e-08 8.759997713070e-04 0.000000000000e+00 2.813337161127e+07 7.749324632542e+07  9.768641866405e-04
1.400000000000e+03 4.542442562525e+06 1.000000000000e+00 5.179372965818e+01 3.558777591617e-04 1.015233860785e-02 -5.840761734881e+07 3.434557962007e+07 -1.464691189775e+06 -2.433801081048e+07 -1.793072311294e-04 2.971761605495e-08 8.723833393199e-04 0.000000000000e+00 2.807010644969e+07 7.747301696827e+07  9.744887980703e-04
1.500000000000e+03 4.545082446453e+06 1.000000000000e+00 5.152154209752e+01 3.592645850520e-04 1.007895134058e-02 -5.834203370243e+07 3.434558149989e+07 -1.449204356649e+06 -2.421835170911e+07 -1.813157480293e-04 2.985726015215e-08 8.685140836423e-04 0.000000000000e+00 2.800319658940e+07 7.745117037948e+07  9.719400173840e-04
1.600000000000e+03 4.547643486991e+06 1.000000000000e+00 5.122683981314e+01 3.630467176039e-04 9.998182972889e-03 -5.827109668310e+07 3.434558057018e+07 -1.433481709756e+06 -2.408913569278e+07 -1.834803964888e-04 2.978819586793e-08 8.642986156348e-04 0.000000000000e+00 2.793123802854e+07 7.742710448744e+07  9.691537588161e-04
1.700000000000e+03 4.550130771774e+06 1.000000000000e+00 5.090583175429e+01 3.672896552446e-04 9.908810544520e-03 -5.819388908511e+07 3.434557984690e+07 -1.417456374615e+06 -2.394874067184e+07 -1.858273579129e-04 2.973446634333e-08 8.596791701621e-04 0.000000000000e+00 2.785336204385e+07 7.740046964772e+07  9.660910899371e-04
1.800000000000e+03 4.552544175197e+06 1.000000000000e+00 5.055622983282e+01 3.720338805110e-04 9.810097091594e-03 -5.810986418443e+07 3.434558013863e+07 -1.401092465828e+06 -2.379619103397e+07 -1.883725624372e-04 2.975613805788e-08 8.546208430818e-04 0.000000000000e+00 2.776904922807e+07 7.737107549059e+07  9.627295199010e-04
1.900000000000e+03 4.554883463306e+06 1.000000000000e+00 5.017674738919e+01 3.773015324576e-04 9.701625840204e-03 -5.801871376697e+07 3.434557988399e+07 -1.384377061367e+06 -2.363094010841e+07 -1.911248670236e-04 2.973722174724e-08 8.491038094413e-04 0.000000000000e+00 2.767801031225e+07 7.733883172148e+07  9.590572711388e-04
2.000000000000e+03 4.557147803229e+06 1.000000000000e+00 4.976678229369e+01 3.831036332965e-04 9.583206081947e-03 -5.792029404257e+07 3.434558037839e+07 -1.367296181352e+06 -2.345272981939e+07 -1.940885165666e-04 2.977394862654e-08 8.431190028209e-04 0.000000000000e+00 2.758010668110e+07 7.730373302345e+07  9.550705337234e-04