 TITLE = "Time curves in points"
 VARIABLES = "TIME"  "PRESSURE1"  "SATURATION1"  "TEMPERATURE1"  "DISPLACEMENT_X1"  "DISPLACEMENT_Y1"  "STRESS_XX"  "STRESS_XY"  "STRESS_YY"  "STRESS_ZZ"  "STRAIN_XX"  "STRAIN_XY"  "STRAIN_YY"  "STRAIN_PLS"  p_(1st_Invariant)  q_(2nd_Invariant)   Effective_Strain
 ZONE T="POINT=POINT9"
0.000000000000e+00 1.000000000000e+05 1.000000000000e+00 2.500000000000e+01 0.000000000000e+00 0.000000000000e+00 -9.595405122015e+07 7.031900351246e+06 -7.455764641618e+07 -4.815606530516e+07 0.000000000000e+00 0.000000000000e+00 0.000000000000e+00 0.000000000000e+00 7.288925431383e+07 4.322142302450e+07  0.000000000000e+00
1.000000000000e-03 1.375363589691e+05 1.000000000000e+00 2.500341806563e+01 0.000000000000e+00 6.387948947290e-05 -9.607520257808e+07 7.038937860088e+06 -7.459518863706e+07 -4.820476019746e+07 -2.691240152245e-06 5.227863711193e-07 4.142420812485e-07 0.000000000000e+00 7.295838380420e+07 4.328224141053e+07  3.057631722465e-06
2.000000000000e-03 1.596543478277e+05 1.000000000000e+00 2.501822531954e+01 0.000000000000e+00 6.381903378147e-05 -9.606296424321e+07 7.038846372714e+06 -7.459353314933e+07 -4.820535157222e+07 -2.214708080073e-06 5.159901661833e-07 4.976969739456e-07 0.000000000000e+00 7.295394965492e+07 4.327179126498e+07  2.655866190574e-06
3.000000000000e-03 1.750698885853e+05 1.000000000000e+00 2.505296841804e+01 0.000000000000e+00 6.391485716550e-05 -9.606017166992e+07 7.038901758248e+06 -7.459762037937e+07 -4.821701158613e+07 -1.677897698411e-06 5.201045201555e-07 7.789718033484e-07 0.000000000000e+00 7.295826787847e+07 4.325981057967e+07  2.353868919113e-06
4.000000000000e-03 1.857698591436e+05 1.000000000000e+00 2.511280776572e+01 0.000000000000e+00 6.399975044706e-05 -9.606921212391e+07 7.039161778936e+06 -7.460627467588e+07 -4.824188803006e+07 -1.089703786161e-06 5.394203426981e-07 1.381508707577e-06 0.000000000000e+00 7.297245827662e+07 4.324633099111e+07  2.339739053462e-06
1.000000000000e-02 2.016789261239e+05 1.000000000000e+00 2.596898026496e+01 0.000000000000e+00 6.524397066907e-05 -9.636653527529e+07 7.044019625003e+06 -7.470824117596e+07 -4.864929720038e+07 2.999205488378e-06 9.002889076358e-07 1.272652217352e-05 0.000000000000e+00 7.324135788387e+07 4.314391236767e+07  1.162848680592e-05
2.000000000000e-02 1.999775693425e+05 1.000000000000e+00 2.761199769072e+01 0.000000000000e+00 7.027123291709e-05 -9.699305828455e+07 7.052652463658e+06 -7.488811207212e+07 -4.945096792876e+07 9.504692198972e-06 1.541585493476e-06 3.582194451313e-05 0.000000000000e+00 7.377737942848e+07 4.297887123495e+07  3.225219036645e-05
3.000000000000e-02 1.899417041039e+05 1.000000000000e+00 2.912015475881e+01 0.000000000000e+00 7.717239958869e-05 -9.757799729637e+07 7.059898762647e+06 -7.505507294312e+07 -5.019420406579e+07 1.538429970654e-05 2.079881989777e-06 5.722645439418e-05 0.000000000000e+00 7.427575810176e+07 4.283469275546e+07  5.142112952592e-05
4.000000000000e-02 1.766791368651e+05 1.000000000000e+00 3.042921154463e+01 0.000000000000e+00 8.628069258172e-05 -9.808189389154e+07 7.065608509668e+06 -7.520884985960e+07 -5.084296435248e+07 2.076495110562e-05 2.504034625632e-06 7.561155100207e-05 0.000000000000e+00 7.471123603454e+07 4.270787939890e+07  6.780140299433e-05
5.000000000000e-02 1.624755378777e+05 1.000000000000e+00 3.155419129749e+01 0.000000000000e+00 9.607283859007e-05 -9.850978635151e+07 7.070103083742e+06 -7.535026264297e+07 -5.140297540842e+07 2.567221324208e-05 2.837917271168e-06 9.115948684038e-05 0.000000000000e+00 7.508767480097e+07 4.259580899112e+07  8.156598624339e-05
6.000000000000e-02 1.480496728640e+05 1.000000000000e+00 3.252596160028e+01 0.000000000000e+00 1.081202855465e-04 -9.887396719360e+07 7.073633740261e+06 -7.547942512502e+07 -5.188795117543e+07 3.015888188181e-05 3.100194612509e-06 1.043754088532e-04 0.000000000000e+00 7.541378116468e+07 4.249568042002e+07  9.319212478832e-05
7.000000000000e-02 1.342905968549e+05 1.000000000000e+00 3.337380904241e+01 0.000000000000e+00 1.197566603937e-04 -9.918832093484e+07 7.076467611973e+06 -7.559872277601e+07 -5.231253205339e+07 3.425303267396e-05 3.310710796888e-06 1.157145001406e-04 0.000000000000e+00 7.569985858808e+07 4.240585906514e+07  1.031136540616e-04
8.000000000000e-02 1.218339410025e+05 1.000000000000e+00 3.412173995213e+01 0.000000000000e+00 1.320031358357e-04 -9.946110942618e+07 7.078732352694e+06 -7.571041206330e+07 -5.268797647726e+07 3.806596731114e-05 3.478948678994e-06 1.255111194995e-04 0.000000000000e+00 7.595316598891e+07 4.232319010732e+07  1.116273535700e-04
9.000000000000e-02 1.115908125434e+05 1.000000000000e+00 3.478854389704e+01 0.000000000000e+00 1.432775450538e-04 -9.970074955090e+07 7.080563903254e+06 -7.581672491906e+07 -5.302386932742e+07 4.164106854174e-05 3.615006720616e-06 1.340383764343e-04 0.000000000000e+00 7.618044793246e+07 4.224629189148e+07  1.189872621203e-04
1.000000000000e-01 1.045672294376e+05 1.000000000000e+00 3.538879911632e+01 0.000000000000e+00 1.535048373165e-04 -9.991484164912e+07 7.082087476063e+06 -7.591700426408e+07 -5.332727649445e+07 4.495848538322e-05 3.728186414948e-06 1.415831241086e-04 0.000000000000e+00 7.638637413588e+07 4.217540162830e+07  1.254726334561e-04
2.000000000000e-01 1.257459073664e+05 1.000000000000e+00 3.885749510603e+01 0.000000000000e+00 2.881374364298e-04 -1.010984706971e+08 7.087318606585e+06 -7.657099330444e+07 -5.508932778158e+07 6.644273998161e-05 4.116784682342e-06 1.827397218462e-04 0.000000000000e+00 7.758626392770e+07 4.172098298750e+07  1.603669528366e-04
3.000000000000e-01 1.562400344316e+05 1.000000000000e+00 4.116519335709e+01 0.000000000000e+00 4.368484196395e-04 -1.017816176888e+08 7.086754802235e+06 -7.712896084941e+07 -5.626804231508e+07 8.484953438881e-05 4.074902073500e-06 2.057960385630e-04 0.000000000000e+00 7.839287361777e+07 4.132644139290e+07  1.792751220996e-04
4.000000000000e-01 1.873099579768e+05 1.000000000000e+00 4.284986299412e+01 0.000000000000e+00 5.777865891516e-04 -1.022276049145e+08 7.083658772168e+06 -7.762658588871e+07 -5.714016948497e+07 1.006775894609e-04 3.844911268466e-06 2.197061176992e-04 0.000000000000e+00 7.899812009605e+07 4.098078548165e+07  1.906085593102e-04
5.000000000000e-01 2.167971561645e+05 1.000000000000e+00 4.415870677105e+01 0.000000000000e+00 7.137551171886e-04 -1.025275866482e+08 7.079381389450e+06 -7.809214254301e+07 -5.782765372154e+07 1.150705395646e-04 3.527162838004e-06 2.279491421831e-04 0.000000000000e+00 7.948246097093e+07 4.066036328301e+07  1.975072969449e-04
6.000000000000e-01 2.441751622672e+05 1.000000000000e+00 4.522029184852e+01 0.000000000000e+00 8.456386958518e-04 -1.027365361269e+08 7.074252233080e+06 -7.853703180650e+07 -5.839524033875e+07 1.283913475688e-04 3.146139793422e-06 2.325064724644e-04 0.000000000000e+00 7.988960275738e+07 4.035919073146e+07  2.017956221948e-04
7.000000000000e-01 2.695236793827e+05 1.000000000000e+00 4.610823858705e+01 0.000000000000e+00 9.734026597789e-04 -1.028927027791e+08 7.068803715457e+06 -7.895665572463e+07 -5.887872346771e+07 1.405488167047e-04 2.741392769992e-06 2.348783860096e-04 0.000000000000e+00 8.024269399048e+07 4.008176644647e+07  2.047742478227e-04
8.000000000000e-01 2.931001250057e+05 1.000000000000e+00 4.686835872746e+01 0.000000000000e+00 1.096897742638e-03 -1.030263925935e+08 7.063644480525e+06 -7.934172519104e+07 -5.930040283907e+07 1.512455716795e-04 2.358135317896e-06 2.362381824789e-04 0.000000000000e+00 8.055617354119e+07 3.983685913612e+07  2.072930419927e-04
9.000000000000e-01 3.149678576752e+05 1.000000000000e+00 4.753046133627e+01 0.000000000000e+00 1.216845162910e-03 -1.031376036496e+08 7.058779007287e+06 -7.970412475326e+07 -5.967426325693e+07 1.610011193990e-04 1.996700163085e-06 2.366638714026e-04 0.000000000000e+00 8.083866388661e+07 3.961277198887e+07  2.093799433864e-04
1.000000000000e+00 3.353127068989e+05 1.000000000000e+00 4.811530493389e+01 0.000000000000e+00 1.333488805352e-03 -1.032352282904e+08 7.054259502744e+06 -8.004886198984e+07 -6.001173184125e+07 1.699096087326e-04 1.660965539882e-06 2.363938928902e-04 0.000000000000e+00 8.109860737382e+07 3.940774210033e+07  2.111729866893e-04
2.000000000000e+00 4.697379131332e+05 1.000000000000e+00 5.129669003549e+01 0.000000000000e+00 2.287629257283e-03 -1.038026948298e+08 7.020713664376e+06 -8.268765794346e+07 -6.208833358321e+07 2.259632019682e-04 -8.310110246227e-07 2.155123936000e-04 0.000000000000e+00 8.285956211883e+07 3.811828565903e+07  2.209279558028e-04
3.000000000000e+00 5.733073282760e+05 1.000000000000e+00 5.334711567617e+01 0.000000000000e+00 3.099071323617e-03 -1.041611938375e+08 6.993467876935e+06 -8.489777416056e+07 -6.357802494395e+07 2.679789179381e-04 -2.854983805972e-06 1.887537560779e-04 0.000000000000e+00 8.421233098068e+07 3.718908576067e+07  2.385017953389e-04
4.000000000000e+00 6.596594526311e+05 1.000000000000e+00 5.484331776307e+01 0.000000000000e+00 3.804403329343e-03 -1.044199027509e+08 6.970669091034e+06 -8.679160294242e+07 -6.474894061140e+07 3.018608830899e-04 -4.548607901462e-06 1.619026975428e-04 0.000000000000e+00 8.532014876824e+07 3.648261585543e+07  2.617679400883e-04
5.000000000000e+00 7.354601095239e+05 1.000000000000e+00 5.604440420721e+01 0.000000000000e+00 4.428087734629e-03 -1.046343127503e+08 6.951360025337e+06 -8.843481798029e+07 -6.572799163526e+07 3.302618354250e-04 -5.982995638954e-06 1.372337484511e-04 0.000000000000e+00 8.626570745530e+07 3.592807991940e+07  2.875592125406e-04
6.000000000000e+00 8.041390168034e+05 1.000000000000e+00 5.709454643067e+01 0.000000000000e+00 4.989835534184e-03 -1.048126939789e+08 6.934217231309e+06 -8.990862659203e+07 -6.659236890415e+07 3.557416883504e-04 -7.256460338170e-06 1.145977271454e-04 0.000000000000e+00 8.710456315838e+07 3.546175797764e+07  3.147627163617e-04
7.000000000000e+00 8.678837899245e+05 1.000000000000e+00 5.796631024017e+01 0.000000000000e+00 5.497761000145e-03 -1.049560073689e+08 6.918797541065e+06 -9.121867333233e+07 -6.733474645339e+07 3.779926428364e-04 -8.401923042028e-06 9.351287147733e-05 0.000000000000e+00 8.783647571822e+07 3.508371516069e+07  3.413029368081e-04
8.000000000000e+00 9.273815367560e+05 1.000000000000e+00 5.880767264491e+01 0.000000000000e+00 5.964504115611e-03 -1.051171390037e+08 6.905411835428e+06 -9.240265650875e+07 -6.803368607102e+07 3.979683679132e-04 -9.396289746461e-06 7.549696786521e-05 0.000000000000e+00 8.851782719450e+07 3.476201621327e+07  3.664670240494e-04
9.000000000000e+00 9.837160278318e+05 1.000000000000e+00 5.957121469890e+01 0.000000000000e+00 6.396479170233e-03 -1.052580012638e+08 6.893123909060e+06 -9.348890052040e+07 -6.866995664810e+07 4.163692482583e-04 -1.030910713379e-05 5.878366886693e-05 0.000000000000e+00 8.913895281078e+07 3.448381982468e+07  3.907198378306e-04
1.000000000000e+01 1.037379889223e+06 1.000000000000e+00 6.026073641101e+01 0.000000000000e+00 6.798215996205e-03 -1.053750487310e+08 6.881628164317e+06 -9.449427769730e+07 -6.924889714674e+07 4.335252751401e-04 -1.116307674326e-05 4.294459224567e-05 0.000000000000e+00 8.970607452503e+07 3.424149589952e+07  4.141795249242e-04
1.100000000000e+01 1.088673728867e+06 1.000000000000e+00 6.090878588780e+01 0.000000000000e+00 7.173843285024e-03 -1.054947277587e+08 6.871142171687e+06 -9.542236704569e+07 -6.979083006588e+07 4.492089911079e-04 -1.194203619583e-05 2.860163915909e-05 0.000000000000e+00 9.023597495677e+07 3.403286659396e+07  4.361037659429e-04
1.200000000000e+01 1.137991997935e+06 1.000000000000e+00 6.149982004481e+01 0.000000000000e+00 7.525901213798e-03 -1.056065207487e+08 6.861557369062e+06 -9.627730473505e+07 -7.028849446196e+07 4.635413576214e-04 -1.265405010512e-05 1.533148826590e-05 0.000000000000e+00 9.072410664856e+07 3.385484698535e+07  4.565952702613e-04
1.300000000000e+01 1.185597008333e+06 1.000000000000e+00 6.203604871768e+01 0.000000000000e+00 7.856937464188e-03 -1.057027088443e+08 6.852487084734e+06 -9.707726739913e+07 -7.074580324912e+07 4.769544118778e-04 -1.332784265515e-05 2.604344266203e-06 0.000000000000e+00 9.117525983086e+07 3.370065999857e+07  4.762174233483e-04
1.400000000000e+01 1.232205376244e+06 1.000000000000e+00 6.252137197228e+01 0.000000000000e+00 8.168850973411e-03 -1.057854408648e+08 6.843913549296e+06 -9.782533929899e+07 -7.116569222382e+07 4.894773844614e-04 -1.396473385916e-05 -9.585307239827e-06 0.000000000000e+00 9.159215746255e+07 3.356830283989e+07  4.949311270332e-04
1.500000000000e+01 1.277367068418e+06 1.000000000000e+00 6.295962029591e+01 0.000000000000e+00 8.462651681501e-03 -1.058588582282e+08 6.835911677390e+06 -9.852090873237e+07 -7.155056039894e+07 5.010455574693e-04 -1.455915862930e-05 -2.112563968947e-05 0.000000000000e+00 9.197677578651e+07 3.345655857032e+07  5.125561028093e-04
1.600000000000e+01 1.321228595387e+06 1.000000000000e+00 6.335431152615e+01 0.000000000000e+00 8.739975501699e-03 -1.059176089323e+08 6.828247220055e+06 -9.917544975099e+07 -7.190347542171e+07 5.119716607340e-04 -1.512851831702e-05 -3.232889096412e-05 0.000000000000e+00 9.233217803500e+07 3.336111758702e+07  5.295264212310e-04
1.700000000000e+01 1.363922199809e+06 1.000000000000e+00 6.370850785820e+01 0.000000000000e+00 9.002230982227e-03 -1.059567054463e+08 6.820819719173e+06 -9.979758025101e+07 -7.222659839020e+07 5.225212147575e-04 -1.568027552545e-05 -4.343488499187e-05 0.000000000000e+00 9.266029469585e+07 3.327878810750e+07  5.462126610546e-04
1.800000000000e+01 1.405587802916e+06 1.000000000000e+00 6.402490199352e+01 0.000000000000e+00 9.250495032621e-03 -1.059754536494e+08 6.813541832185e+06 -1.003919578371e+08 -7.252206088388e+07 5.327991741247e-04 -1.622091855885e-05 -5.453744556907e-05 0.000000000000e+00 9.296315745680e+07 3.320829853354e+07  5.627576329753e-04
1.900000000000e+01 1.446313785953e+06 1.000000000000e+00 6.430589182614e+01 0.000000000000e+00 9.485630079493e-03 -1.059742480379e+08 6.806353601983e+06 -1.009606727391e+08 -7.279144732932e+07 5.428497362381e-04 -1.675490137384e-05 -6.565535966729e-05 0.000000000000e+00 9.324212270210e+07 3.314889256415e+07  5.792060403906e-04
2.000000000000e+01 1.486183570755e+06 1.000000000000e+00 6.455355167662e+01 0.000000000000e+00 9.707640197474e-03 -1.059693377906e+08 6.799630520892e+06 -1.014887832814e+08 -7.303587627105e+07 5.521109061177e-04 -1.725433025488e-05 -7.619210483233e-05 0.000000000000e+00 9.349799911434e+07 3.310336859770e+07  5.946354490513e-04
2.100000000000e+01 1.525125187764e+06 1.000000000000e+00 6.481651432677e+01 0.000000000000e+00 9.919786980892e-03 -1.059752485957e+08 6.793400320951e+06 -1.019935611609e+08 -7.328176112504e+07 5.610242279319e-04 -1.771714510761e-05 -8.580813149243e-05 0.000000000000e+00 9.375019029387e+07 3.306045331393e+07  6.092563928018e-04
2.200000000000e+01 1.563296828247e+06 1.000000000000e+00 6.506310005153e+01 0.000000000000e+00 1.012279843472e-02 -1.059714525818e+08 6.787280957663e+06 -1.024806978506e+08 -7.351370338789e+07 5.697802210676e-04 -1.817172638048e-05 -9.528678163546e-05 0.000000000000e+00 9.398861794012e+07 3.302408754473e+07  6.237084491157e-04
2.300000000000e+01 1.600764538218e+06 1.000000000000e+00 6.528885293821e+01 0.000000000000e+00 1.031629790673e-02 -1.059709461486e+08 6.781582762602e+06 -1.029352912061e+08 -7.372957750069e+07 5.778172127773e-04 -1.859502087069e-05 -1.041534963625e-04 0.000000000000e+00 9.421193828513e+07 3.299722681422e+07  6.371339651589e-04
2.400000000000e+01 1.637574350694e+06 1.000000000000e+00 6.549323240318e+01 0.000000000000e+00 1.050105229582e-02 -1.059651184371e+08 6.776095218346e+06 -1.033678301960e+08 -7.392975814959e+07 5.854689518775e-04 -1.900266701541e-05 -1.127839490305e-04 0.000000000000e+00 9.442090226092e+07 3.297804647958e+07  6.500837771088e-04
2.500000000000e+01 1.673781468387e+06 1.000000000000e+00 6.567656819956e+01 0.000000000000e+00 1.067749015516e-02 -1.059513734799e+08 6.770736995921e+06 -1.037812964432e+08 -7.411447656323e+07 5.928404485085e-04 -1.940070639559e-05 -1.212802971331e-04 0.000000000000e+00 9.461571549546e+07 3.296569973645e+07  6.627199527961e-04
2.600000000000e+01 1.709418522054e+06 1.000000000000e+00 6.583945686769e+01 0.000000000000e+00 1.084599101929e-02 -1.059282733286e+08 6.765519668282e+06 -1.041773271348e+08 -7.428400137830e+07 5.999950901166e-04 -1.978827930588e-05 -1.296933725447e-04 0.000000000000e+00 9.479653394722e+07 3.295959816891e+07  6.751330193282e-04
2.700000000000e+01 1.744518245017e+06 1.000000000000e+00 6.598257449113e+01 0.000000000000e+00 1.100689530313e-02 -1.058947448066e+08 6.760370597253e+06 -1.045581281883e+08 -7.443890906610e+07 6.069941493390e-04 -2.017078172516e-05 -1.380836975587e-04 0.000000000000e+00 9.496392735367e+07 3.295936263280e+07  6.874195099840e-04
2.800000000000e+01 1.779123728188e+06 1.000000000000e+00 6.610660116461e+01 0.000000000000e+00 1.116058479515e-02 -1.058488897393e+08 6.755218241580e+06 -1.049268250624e+08 -7.457980583882e+07 6.139306462527e-04 -2.055352814664e-05 -1.465448441802e-04 0.000000000000e+00 9.511850688017e+07 3.296471771416e+07  6.997299073317e-04
2.900000000000e+01 1.813258571779e+06 1.000000000000e+00 6.621219502953e+01 0.000000000000e+00 1.130730119769e-02 -1.057909655054e+08 6.750090555604e+06 -1.052833178760e+08 -7.470696927293e+07 6.208053310656e-04 -2.093444196200e-05 -1.550627925624e-04 0.000000000000e+00 9.526041755144e+07 3.297550573414e+07  7.120549765083e-04
3.000000000000e+01 1.846933373120e+06 1.000000000000e+00 6.629998114533e+01 0.000000000000e+00 1.144733163910e-02 -1.057208156491e+08 6.744945807689e+06 -1.056294950629e+08 -7.482113774688e+07 6.276514404734e-04 -2.131662323564e-05 -1.636802590439e-04 0.000000000000e+00 9.539048281964e+07 3.299181018160e+07  7.244549009934e-04
3.100000000000e+01 1.880068624474e+06 1.000000000000e+00 6.640753112562e+01 0.000000000000e+00 1.158258717396e-02 -1.056555336933e+08 6.739982529069e+06 -1.059699583028e+08 -7.494185369783e+07 6.345599341532e-04 -2.168532393318e-05 -1.718423012056e-04 0.000000000000e+00 9.552244856466e+07 3.300557880141e+07  7.366485496328e-04
3.200000000000e+01 1.912746249129e+06 1.000000000000e+00 6.650903867136e+01 0.000000000000e+00 1.171331081800e-02 -1.055806577999e+08 6.734941369378e+06 -1.063073189629e+08 -7.505664055705e+07 6.416045506800e-04 -2.205981008162e-05 -1.801093280918e-04 0.000000000000e+00 9.564820577326e+07 3.302275864766e+07  7.490758571100e-04
3.300000000000e+01 1.944992531707e+06 1.000000000000e+00 6.660028914584e+01 0.000000000000e+00 1.183956503834e-02 -1.054941891417e+08 6.729790482351e+06 -1.066416692198e+08 -7.516345587474e+07 6.487836697850e-04 -2.244244740360e-05 -1.885606258372e-04 0.000000000000e+00 9.576643807875e+07 3.304457963159e+07  7.617882940423e-04
3.400000000000e+01 1.976830069253e+06 1.000000000000e+00 6.668024522067e+01 0.000000000000e+00 1.196134223456e-02 -1.053965300065e+08 6.724545588252e+06 -1.069721838363e+08 -7.526181014526e+07 6.560641677106e-04 -2.283206810810e-05 -1.971837244025e-04 0.000000000000e+00 9.587684132937e+07 3.307150515131e+07  7.747455707273e-04
3.500000000000e+01 2.008299353080e+06 1.000000000000e+00 6.674866227776e+01 0.000000000000e+00 1.207904026847e-02 -1.052812065172e+08 6.719097447018e+06 -1.073054520772e+08 -7.535165247483e+07 6.636846124122e-04 -2.323678717122e-05 -2.062252582518e-04 0.000000000000e+00 9.597943702309e+07 3.310437061256e+07  7.883492229465e-04
3.600000000000e+01 2.039444665063e+06 1.000000000000e+00 6.680556849252e+01 0.000000000000e+00 1.219311522754e-02 -1.051395259999e+08 6.713187701597e+06 -1.076507887772e+08 -7.543317938951e+07 6.719751741718e-04 -2.367579683104e-05 -2.160239074176e-04 0.000000000000e+00 9.607449805551e+07 3.314475191511e+07  8.031570806250e-04
3.700000000000e+01 2.070350556992e+06 1.000000000000e+00 6.685110766982e+01 0.000000000000e+00 1.230496674915e-02 -1.049438814995e+08 6.706205901934e+06 -1.080359066075e+08 -7.550647293596e+07 6.819643016269e-04 -2.419444480606e-05 -2.276059522470e-04 0.000000000000e+00 9.616208701430e+07 3.319732581690e+07  8.208867314925e-04
3.800000000000e+01 2.103243222911e+06 1.000000000000e+00 6.688581947385e+01 0.000000000000e+00 1.245642136215e-02 -1.038084840661e+08 6.677404785115e+06 -1.093513004549e+08 -7.557313293597e+07 7.266121491510e-04 -2.633395634114e-05 -2.739874951512e-04 0.000000000000e+00 9.624430581900e+07 3.343986300724e+07  8.967705599846e-04
3.900000000000e+01 2.133056539558e+06 1.000000000000e+00 6.690898290706e+01 0.000000000000e+00 1.254597988223e-02 -1.039001741690e+08 6.677322329444e+06 -1.094256939650e+08 -7.563157892094e+07 7.253773676279e-04 -2.634008161958e-05 -2.745798317998e-04 0.000000000000e+00 9.631914901834e+07 3.346047563079e+07  8.960032392753e-04
4.000000000000e+01 2.162442327634e+06 1.000000000000e+00 6.692119997969e+01 0.000000000000e+00 1.262842974900e-02 -1.040322743254e+08 6.678301272732e+06 -1.094346332766e+08 -7.567868053892e+07 7.222202790603e-04 -2.626736011817e-05 -2.731623747056e-04 0.000000000000e+00 9.638186271364e+07 3.346770350212e+07  8.919490700439e-04
4.200000000000e+01 2.219725185797e+06 1.000000000000e+00 6.697479430470e+01 0.000000000000e+00 1.278297100941e-02 -1.042881623658e+08 6.680258716590e+06 -1.094527024626e+08 -7.578046463064e+07 7.164964181083e-04 -2.612195000301e-05 -2.700529639200e-04 0.000000000000e+00 9.650710981967e+07 3.347339274935e+07  8.842142108381e-04
4.400000000000e+01 2.275490822840e+06 1.000000000000e+00 6.700716833757e+01 0.000000000000e+00 1.292707257935e-02 -1.045144084882e+08 6.681926949618e+06 -1.094679484357e+08 -7.586507714626e+07 7.112357412844e-04 -2.599802412094e-05 -2.674764923422e-04 0.000000000000e+00 9.661581135673e+07 3.348405284467e+07  8.773063813274e-04
5.000000000000e+01 2.427012687568e+06 1.000000000000e+00 6.679475867122e+01 0.000000000000e+00 1.322819060658e-02 -1.048435527383e+08 6.683552707270e+06 -1.094806738805e+08 -7.589579293564e+07 7.001512555996e-04 -2.587725355248e-05 -2.668082795411e-04 0.000000000000e+00 9.674000651814e+07 3.358153643674e+07  8.661486520388e-04
6.500000000000e+01 2.758397042868e+06 1.000000000000e+00 6.601327623856e+01 0.000000000000e+00 1.374055207606e-02 -1.049999032015e+08 6.681449751716e+06 -1.094532618294e+08 -7.566574977769e+07 6.857994925276e-04 -2.603347310792e-05 -2.743345777983e-04 0.000000000000e+00 9.670630493622e+07 3.383616080112e+07  8.577599570567e-04
8.000000000000e+01 3.013450390124e+06 1.000000000000e+00 6.501253148981e+01 0.000000000000e+00 1.398407857331e-02 -1.046608119541e+08 6.675260142906e+06 -1.093873407898e+08 -7.519767000004e+07 6.810084899774e-04 -2.649327261955e-05 -2.892719023544e-04 0.000000000000e+00 9.641527424799e+07 3.410795350946e+07  8.640330426612e-04
1.000000000000e+02 3.314130012986e+06 1.000000000000e+00 6.391116451659e+01 0.000000000000e+00 1.418850494124e-02 -1.041431032977e+08 6.667244220246e+06 -1.093035227819e+08 -7.463522727839e+07 6.793469389814e-04 -2.708874115999e-05 -3.070493917219e-04 0.000000000000e+00 9.602728445268e+07 3.439439098531e+07  8.755490029321e-04
1.860000000000e+02 3.912611203897e+06 1.000000000000e+00 6.127460325841e+01 0.000000000000e+00 1.443685272292e-02 -1.024602187398e+08 6.644457564683e+06 -1.090693910395e+08 -7.314392674288e+07 6.864629169576e-04 -2.878146414470e-05 -3.537442326061e-04 0.000000000000e+00 9.489117884071e+07 3.506178844434e+07  9.174332315033e-04
2.720000000000e+02 4.202932547734e+06 1.000000000000e+00 5.927316544670e+01 0.000000000000e+00 1.425216230191e-02 -1.008491924487e+08 6.625838408699e+06 -1.088821084874e+08 -7.190713550474e+07 7.003630760659e-04 -3.016460144637e-05 -3.927259838042e-04 0.000000000000e+00 9.387947881363e+07 3.558601856777e+07  9.604804132729e-04
3.580000000000e+02 4.344298233456e+06 1.000000000000e+00 5.786901889816e+01 0.000000000000e+00 1.405874458701e-02 -9.962899476237e+07 6.612162952915e+06 -1.087452568106e+08 -7.101041982208e+07 7.123781219173e-04 -3.118049244741e-05 -4.209495040220e-04 0.000000000000e+00 9.312822379836e+07 3.597479104451e+07  9.937167402976e-04
4.440000000000e+02 4.416427119135e+06 1.000000000000e+00 5.679914770244e+01 0.000000000000e+00 1.387725703119e-02 -9.866878126906e+07 6.601623229013e+06 -1.086401254109e+08 -7.031760649618e+07 7.223101281355e-04 -3.196344336588e-05 -4.427776898500e-04 0.000000000000e+00 9.254217105870e+07 3.628581573087e+07  1.020133226036e-03
5.300000000000e+02 4.455391631741e+06 1.000000000000e+00 5.597604559742e+01 0.000000000000e+00 1.371974634925e-02 -9.791408094479e+07 6.593451965894e+06 -1.085588051275e+08 -6.977958563781e+07 7.303582225828e-04 -3.257045148326e-05 -4.597408540643e-04 0.000000000000e+00 9.208415723669e+07 3.653443236381e+07  1.041029683603e-03
6.160000000000e+02 4.477907107390e+06 1.000000000000e+00 5.534879673767e+01 0.000000000000e+00 1.358908194557e-02 -9.732955857919e+07 6.587189151486e+06 -1.084965738306e+08 -6.936663470322e+07 7.367308757353e-04 -3.303568912501e-05 -4.727675834664e-04 0.000000000000e+00 9.173092237102e+07 3.672959190448e+07  1.057288095692e-03
7.020000000000e+02 4.491717402700e+06 1.000000000000e+00 5.488766029124e+01 0.000000000000e+00 1.348879249626e-02 -9.689613477311e+07 6.582571721652e+06 -1.084507409841e+08 -6.906188950544e+07 7.415103669003e-04 -3.337869819838e-05 -4.823843279401e-04 0.000000000000e+00 9.146958842088e+07 3.687626104923e+07  1.069377228363e-03
7.880000000000e+02 4.501335964160e+06 1.000000000000e+00 5.452634175001e+01 0.000000000000e+00 1.339822540033e-02 -9.654902861361e+07 6.578949557938e+06 -1.084148910707e+08 -6.882082812392e+07 7.454491729398e-04 -3.364777321714e-05 -4.900064681841e-04 0.000000000000e+00 9.126158260273e+07 3.699349320213e+07  1.079107150690e-03
8.740000000000e+02 4.509722042572e+06 1.000000000000e+00 5.394399363726e+01 0.000000000000e+00 1.327061529735e-02 -9.600167777407e+07 6.573116014356e+06 -1.083569979461e+08 -6.843597713429e+07 7.514848816504e-04 -3.408112216893e-05 -5.021506174562e-04 0.000000000000e+00 9.093155095147e+07 3.718497556673e+07  1.094407573053e-03
9.370000000000e+02 4.515095894190e+06 1.000000000000e+00 5.354017250226e+01 0.000000000000e+00 1.316567815835e-02 -9.560314313995e+07 6.568962279234e+06 -1.083159188267e+08 -6.816304011275e+07 7.561499358321e-04 -3.438968534949e-05 -5.107624823961e-04 0.000000000000e+00 9.069403402648e+07 3.732114133693e+07  1.105622905220e-03
1.000000000000e+03 4.519285919232e+06 1.000000000000e+00 5.322023010413e+01 0.000000000000e+00 1.307798806088e-02 -9.527578481916e+07 6.565565500608e+06 -1.082823520497e+08 -6.794296549123e+07 7.601347589475e-04 -3.464201747596e-05 -5.176899166185e-04 0.000000000000e+00 9.050036745335e+07 3.743100194694e+07  1.114864121600e-03
1.100000000000e+03 4.523431229204e+06 1.000000000000e+00 5.289815656035e+01 0.000000000000e+00 1.298632564868e-02 -9.493891737949e+07 6.562083331254e+06 -1.082479811206e+08 -6.771902413753e+07 7.643291564266e-04 -3.490069291370e-05 -5.247311038208e-04 0.000000000000e+00 9.030197421255e+07 3.754341317587e+07  1.124394613876e-03
1.200000000000e+03 4.526692601801e+06 1.000000000000e+00 5.262163524845e+01 0.000000000000e+00 1.291010587619e-02 -9.465528948072e+07 6.559141163306e+06 -1.082189181392e+08 -6.752859001927e+07 7.677906397027e-04 -3.511925396123e-05 -5.307248889015e-04 0.000000000000e+00 9.013426587972e+07 3.764084646606e+07  1.132412054893e-03
1.300000000000e+03 4.529597975110e+06 1.000000000000e+00 5.235621127184e+01 0.000000000000e+00 1.283754474291e-02 -9.438472492629e+07 6.556332537134e+06 -1.081911754348e+08 -6.734635497937e+07 7.710714502425e-04 -3.532789476259e-05 -5.364631756497e-04 0.000000000000e+00 8.997408511349e+07 3.773528760386e+07  1.140061199893e-03
1.400000000000e+03 4.532337488817e+06 1.000000000000e+00 5.208448046146e+01 0.000000000000e+00 1.276258115853e-02 -9.410689692438e+07 6.553451522912e+06 -1.081627197895e+08 -6.715951959323e+07 7.744511759710e-04 -3.554191296194e-05 -5.423458517379e-04 0.000000000000e+00 8.980971210237e+07 3.783302848675e+07  1.147921474776e-03
1.500000000000e+03 4.534977375631e+06 1.000000000000e+00 5.179637451914e+01 0.000000000000e+00 1.268167760706e-02 -9.381007579706e+07 6.550379890242e+06 -1.081323909149e+08 -6.696069298262e+07 7.780909723064e-04 -3.577009138885e-05 -5.486043390745e-04 0.000000000000e+00 8.963438656485e+07 3.793792059875e+07  1.156328181768e-03
1.600000000000e+03 4.537538419005e+06 1.000000000000e+00 5.148575254412e+01 0.000000000000e+00 1.259266763224e-02 -9.348709378118e+07 6.547044320540e+06 -1.080994666294e+08 -6.674535885741e+07 7.820893225310e-04 -3.601787656672e-05 -5.553795616925e-04 0.000000000000e+00 8.944397308932e+07 3.805250841019e+07  1.165486359170e-03
1.700000000000e+03 4.540025706284e+06 1.000000000000e+00 5.114882396046e+01 0.000000000000e+00 1.249420857755e-02 -9.313355742314e+07 6.543400773284e+06 -1.080635220696e+08 -6.651074502596e+07 7.865064449469e-04 -3.628854007721e-05 -5.627587060698e-04 0.000000000000e+00 8.923594150624e+07 3.817857924544e+07  1.175522723259e-03
1.800000000000e+03 4.542439113240e+06 1.000000000000e+00 5.078330097052e+01 0.000000000000e+00 1.238549027620e-02 -9.274679328619e+07 6.539423309384e+06 -1.080242967556e+08 -6.625517058728e+07 7.913792051683e-04 -3.658400882406e-05 -5.707945306998e-04 0.000000000000e+00 8.900875354302e+07 3.831744008713e+07  1.186514868754e-03
1.900000000000e+03 4.544778403850e+06 1.000000000000e+00 5.038789710237e+01 0.000000000000e+00 1.226605476055e-02 -9.232532220600e+07 6.535095390072e+06 -1.079816351186e+08 -6.597769485839e+07 7.967276039312e-04 -3.690551140150e-05 -5.795161969696e-04 0.000000000000e+00 8.876155072766e+07 3.847007557045e+07  1.198505944408e-03
2.000000000000e+03 4.547042747354e+06 1.000000000000e+00 4.996201034884e+01 0.000000000000e+00 1.213569213508e-02 -9.186842611157e+07 6.530410998059e+06 -1.079354734797e+08 -6.567787261325e+07 8.025617754761e-04 -3.725349480816e-05 -5.889378766288e-04 0.000000000000e+00 8.849392406816e+07 3.863727178181e+07  1.211517941478e-03