 TITLE = "Time curves in points"
 VARIABLES = "TIME"  "PRESSURE1"  "SATURATION1"  "TEMPERATURE1"  "DISPLACEMENT_X1"  "DISPLACEMENT_Y1"  "STRESS_XX"  "STRESS_XY"  "STRESS_YY"  "STRESS_ZZ"  "STRAIN_XX"  "STRAIN_XY"  "STRAIN_YY"  "STRAIN_PLS"  p_(1st_Invariant)  q_(2nd_Invariant)   Effective_Strain
 ZONE T="POINT=POINT15"
0.000000000000e+00 1.000000000000e+05 1.000000000000e+00 2.500000000000e+01 0.000000000000e+00 0.000000000000e+00 -3.276148941953e+07 5.168805398672e+05 5.507391194311e+06 -5.188548022063e+06 0.000000000000e+00 0.000000000000e+00 0.000000000000e+00 0.000000000000e+00 1.081421541576e+07 3.421096629314e+07  0.000000000000e+00
1.000000000000e-03 1.960039119575e+05 1.000000000000e+00 2.500000003922e+01 0.000000000000e+00 6.243853964870e-05 -3.280872282855e+07 5.169831232972e+05 5.475670056398e+06 -5.212234394732e+06 -8.746042073559e-07 7.620483367329e-09 -2.984341376366e-07 0.000000000000e+00 1.084842905563e+07 3.422788222562e+07  7.701674603203e-07
2.000000000000e-03 2.110301634482e+05 1.000000000000e+00 2.499999991814e+01 0.000000000000e+00 6.232556470035e-05 -3.280191027928e+07 5.168940501160e+05 5.477924795052e+06 -5.209514178418e+06 -7.226032687824e-07 1.003618482118e-09 -3.157233078331e-07 0.000000000000e+00 1.084449988755e+07 3.422360679758e+07  6.274528019248e-07
3.000000000000e-03 2.214048532335e+05 1.000000000000e+00 2.499999996345e+01 0.000000000000e+00 6.227502863188e-05 -3.279639676814e+07 5.167878022542e+05 5.478158655680e+06 -5.207789955500e+06 -5.818582776063e-07 -6.889079823929e-09 -3.710796214958e-07 0.000000000000e+00 1.084200935599e+07 3.421888904004e+07  5.103780653129e-07
4.000000000000e-03 2.285516429807e+05 1.000000000000e+00 2.500000020706e+01 0.000000000000e+00 6.216158010589e-05 -3.279169208881e+07 5.166589479012e+05 5.476385398535e+06 -5.206910460495e+06 -4.397800029036e-07 -1.646111747317e-08 -4.696104156205e-07 0.000000000000e+00 1.084073905026e+07 3.421330414679e+07  4.563200944879e-07
1.000000000000e-02 2.383748876322e+05 1.000000000000e+00 2.500562013607e+01 0.000000000000e+00 6.382828309810e-05 -3.275681029571e+07 5.148190816304e+05 5.428719324268e+06 -5.212518005477e+06 1.064109697321e-06 -1.531368975916e-07 -2.031784360480e-06 0.000000000000e+00 1.084686965897e+07 3.414417134854e+07  2.737310962329e-06
2.000000000000e-02 2.339019572337e+05 1.000000000000e+00 2.506208476331e+01 0.000000000000e+00 7.446602611233e-05 -3.268811653056e+07 5.104066283456e+05 5.308860163658e+06 -5.246320241683e+06 4.871104033595e-06 -4.809191416084e-07 -5.228184409786e-06 0.000000000000e+00 1.087519220286e+07 3.398380014365e+07  8.787630315279e-06
3.000000000000e-02 2.226011893648e+05 1.000000000000e+00 2.517761121051e+01 0.000000000000e+00 8.990699013425e-05 -3.263008649712e+07 5.058902999153e+05 5.173266048098e+06 -5.307866247920e+06 9.312499792961e-06 -8.164178250004e-07 -7.978542756098e-06 0.000000000000e+00 1.092156223231e+07 3.381557974650e+07  1.505588220145e-05
4.000000000000e-02 2.085792893110e+05 1.000000000000e+00 2.534734615133e+01 0.000000000000e+00 1.089264157351e-04 -3.259081599957e+07 5.017979265714e+05 5.035477604517e+06 -5.394171587374e+06 1.397674516729e-05 -1.120422701978e-06 -9.890772337935e-06 0.000000000000e+00 1.098316999414e+07 3.365771699689e+07  2.086105530601e-05
5.000000000000e-02 1.938518400507e+05 1.000000000000e+00 2.555910063164e+01 0.000000000000e+00 1.290521607372e-04 -3.257246174146e+07 4.983022779126e+05 4.899809252477e+06 -5.500638435077e+06 1.861295766891e-05 -1.380099459488e-06 -1.097539964186e-05 0.000000000000e+00 1.105776364135e+07 3.351651722388e+07  2.601730698921e-05
6.000000000000e-02 1.789834898879e+05 1.000000000000e+00 2.579984334792e+01 0.000000000000e+00 1.514837256707e-04 -3.257034373345e+07 4.953494996673e+05 4.773058851986e+06 -5.619475838009e+06 2.310558721840e-05 -1.599448700566e-06 -1.126931097976e-05 0.000000000000e+00 1.113892023982e+07 3.339428095512e+07  3.047825924880e-05
7.000000000000e-02 1.648571695325e+05 1.000000000000e+00 2.605851251381e+01 0.000000000000e+00 1.731761135275e-04 -3.258342007005e+07 4.929024017270e+05 4.651894794400e+06 -5.747619244089e+06 2.737950694164e-05 -1.781233118988e-06 -1.101007803572e-05 0.000000000000e+00 1.122638150658e+07 3.328841005461e+07  3.437772681548e-05
8.000000000000e-02 1.520598724209e+05 1.000000000000e+00 2.632667934489e+01 0.000000000000e+00 1.950374149778e-04 -3.260694949999e+07 4.908432251195e+05 4.538284404731e+06 -5.880161609949e+06 3.142855884743e-05 -1.934200524115e-06 -1.030689034862e-05 0.000000000000e+00 1.131627556840e+07 3.319698158377e+07  3.780397339888e-05
9.000000000000e-02 1.415311319150e+05 1.000000000000e+00 2.659830396968e+01 0.000000000000e+00 2.153490884545e-04 -3.263955023559e+07 4.891162218105e+05 4.429208879960e+06 -6.015496722485e+06 3.524440713363e-05 -2.062492198502e-06 -9.331534231619e-06 0.000000000000e+00 1.140861269270e+07 3.311691721030e+07  4.087654314108e-05
1.000000000000e-01 1.342880976520e+05 1.000000000000e+00 2.686923310750e+01 0.000000000000e+00 2.340820633351e-04 -3.267907043120e+07 4.876652142457e+05 4.324622822139e+06 -6.151534372220e+06 3.882934114374e-05 -2.170281331886e-06 -8.163332246245e-06 0.000000000000e+00 1.150199399376e+07 3.304663566444e+07  4.365163115918e-05
2.000000000000e-01 1.519776802304e+05 1.000000000000e+00 2.902104310329e+01 0.000000000000e+00 4.283159544644e-04 -3.309161333021e+07 4.805765960461e+05 3.706103202352e+06 -7.203971838317e+06 6.259685363587e-05 -2.696864398138e-06 7.953616330971e-06 0.000000000000e+00 1.219649398872e+07 3.274643022227e+07  5.920788776212e-05
3.000000000000e-01 1.790572852396e+05 1.000000000000e+00 3.070768399391e+01 0.000000000000e+00 6.187281252668e-04 -3.343573318577e+07 4.755898937800e+05 3.297997251326e+06 -8.014556396651e+06 7.992268545296e-05 -3.067305137906e-06 2.290282174525e-05 0.000000000000e+00 1.271743077703e+07 3.259550709599e+07  7.148387900781e-05
4.000000000000e-01 2.066914115448e+05 1.000000000000e+00 3.205934977555e+01 0.000000000000e+00 7.901801915893e-04 -3.373013348135e+07 4.716735368754e+05 2.991200331686e+06 -8.664808786214e+06 9.314004894371e-05 -3.358234507968e-06 3.565973919953e-05 0.000000000000e+00 1.313458064529e+07 3.251095402468e+07  8.160373202056e-05
5.000000000000e-01 2.329672035767e+05 1.000000000000e+00 3.317184845531e+01 0.000000000000e+00 9.491442446419e-04 -3.398059973665e+07 4.681899359549e+05 2.749082135792e+06 -9.199928914216e+06 1.037129070726e-04 -3.617016290633e-06 4.654266810644e-05 0.000000000000e+00 1.347714883836e+07 3.245955370019e+07  9.019290468895e-05
6.000000000000e-01 2.574499089701e+05 1.000000000000e+00 3.410964206560e+01 0.000000000000e+00 1.098871067598e-03 -3.419728073950e+07 4.649183283804e+05 2.551232300277e+06 -9.651144968790e+06 1.124242089941e-04 -3.860049996168e-06 5.595341338574e-05 0.000000000000e+00 1.376573113600e+07 3.242808117386e+07  9.759184881418e-05
7.000000000000e-01 2.802222965386e+05 1.000000000000e+00 3.491618489167e+01 0.000000000000e+00 1.241097517776e-03 -3.438920606046e+07 4.618406924092e+05 2.386657713209e+06 -1.003941585606e+07 1.197170443137e-04 -4.088674382596e-06 6.426213310738e-05 0.000000000000e+00 1.401398806777e+07 3.241190772385e+07  1.040128433821e-04
8.000000000000e-01 3.015584664199e+05 1.000000000000e+00 3.562141889441e+01 0.000000000000e+00 1.376959352126e-03 -3.456351832604e+07 4.589799182079e+05 2.248785425117e+06 -1.037919469526e+07 1.258629456201e-04 -4.301189037552e-06 7.176151929164e-05 0.000000000000e+00 1.423130919873e+07 3.240954392041e+07  1.096110451204e-04
9.000000000000e-01 3.214760045040e+05 1.000000000000e+00 3.624655662569e+01 0.000000000000e+00 1.507414183577e-03 -3.472279512605e+07 4.562343551750e+05 2.129916534867e+06 -1.068090622516e+07 1.311533784443e-04 -4.505145148564e-06 7.855281733564e-05 0.000000000000e+00 1.442459493878e+07 3.241528078851e+07  1.145869774768e-04
1.000000000000e+00 3.401226122245e+05 1.000000000000e+00 3.680707518524e+01 0.000000000000e+00 1.633096755136e-03 -3.487043771346e+07 4.535718246393e+05 2.025785236680e+06 -1.095221626572e+07 1.357467409901e-04 -4.702933131214e-06 8.476231348105e-05 0.000000000000e+00 1.459895624750e+07 3.242742259729e+07  1.190460936040e-04
2.000000000000e+00 4.671720763694e+05 1.000000000000e+00 4.007010834523e+01 0.000000000000e+00 2.629785811443e-03 -3.591966799666e+07 4.316709477334e+05 1.484051879951e+06 -1.257081325952e+07 1.568946473836e-04 -6.329855415656e-06 1.247601057151e-04 0.000000000000e+00 1.566880979208e+07 3.273274011655e+07  1.439688256906e-04
3.000000000000e+00 5.669204485162e+05 1.000000000000e+00 4.231089734746e+01 0.000000000000e+00 3.463465200957e-03 -3.674698380306e+07 4.126999007866e+05 1.140741432726e+06 -1.370659009035e+07 1.683517711483e-04 -7.739133188848e-06 1.541945713919e-04 0.000000000000e+00 1.643761082023e+07 3.307419421984e+07  1.622930622293e-04
4.000000000000e+00 6.510622430743e+05 1.000000000000e+00 4.402956206316e+01 0.000000000000e+00 4.182323743181e-03 -3.743739837357e+07 3.961750093144e+05 8.929513582873e+05 -1.459026589819e+07 1.755300456777e-04 -8.966696555352e-06 1.778131843468e-04 0.000000000000e+00 1.704490430449e+07 3.340568003614e+07  1.773639592308e-04
5.000000000000e+00 7.254035437310e+05 1.000000000000e+00 4.544864994937e+01 0.000000000000e+00 4.815845560854e-03 -3.803378606874e+07 3.816848447376e+05 6.968720920247e+05 -1.532545591844e+07 1.806855606090e-04 -1.004310878106e-05 1.978372980661e-04 0.000000000000e+00 1.755412329838e+07 3.371439777440e+07  1.906387088453e-04
6.000000000000e+00 7.929929650988e+05 1.000000000000e+00 4.668777858518e+01 0.000000000000e+00 5.385416479991e-03 -3.856053864685e+07 3.686457979189e+05 5.252205240028e+05 -1.596937804004e+07 1.850375722244e-04 -1.101172368759e-05 2.153787757706e-04 0.000000000000e+00 1.800156538763e+07 3.399223652292e+07  2.028238856388e-04
7.000000000000e+00 8.558563136304e+05 1.000000000000e+00 4.776451332755e+01 0.000000000000e+00 5.899448510058e-03 -3.902904555063e+07 3.570675342936e+05 3.826143267600e+05 -1.653035398767e+07 1.884721367104e-04 -1.187182327118e-05 2.309182236421e-04 0.000000000000e+00 1.839226173718e+07 3.425115718400e+07  2.138834773290e-04
8.000000000000e+00 9.146399701799e+05 1.000000000000e+00 4.876058458216e+01 0.000000000000e+00 6.372717090720e-03 -3.945872889521e+07 3.464955859054e+05 2.488170964929e+05 -1.704863735326e+07 1.917629946335e-04 -1.265716800859e-05 2.451991372397e-04 0.000000000000e+00 1.875284971733e+07 3.448785073899e+07  2.244017688907e-04
9.000000000000e+00 9.703372484239e+05 1.000000000000e+00 4.967363714009e+01 0.000000000000e+00 6.810559022154e-03 -3.985263316129e+07 3.368048041057e+05 1.271383911114e+05 -1.752347175903e+07 1.947689712506e-04 -1.337705465657e-05 2.583163489685e-04 0.000000000000e+00 1.908298884307e+07 3.470733528981e+07  2.342799938844e-04
1.000000000000e+01 1.023443027822e+06 1.000000000000e+00 5.051032884249e+01 0.000000000000e+00 7.217355548455e-03 -4.021422125130e+07 3.278575621985e+05 1.692108786755e+04 -1.795844181029e+07 1.974945869541e-04 -1.404170691254e-05 2.703785938949e-04 0.000000000000e+00 1.938524732458e+07 3.491148197405e+07  2.435198057434e-04
1.100000000000e+01 1.074252378356e+06 1.000000000000e+00 5.129075261320e+01 0.000000000000e+00 7.598027492566e-03 -4.055138594762e+07 3.195650708043e+05 -8.471820863491e+04 -1.836376623645e+07 2.000262340626e-04 -1.465772055896e-05 2.816583272821e-04 0.000000000000e+00 1.966662346423e+07 3.510397409236e+07  2.522843622937e-04
1.200000000000e+01 1.123145537297e+06 1.000000000000e+00 5.201381134970e+01 0.000000000000e+00 7.954871216841e-03 -4.086554439223e+07 3.119044554305e+05 -1.757457517254e+05 -1.873892586907e+07 2.022919924746e-04 -1.522679484387e-05 2.922118048933e-04 0.000000000000e+00 1.992673867101e+07 3.528754966754e+07  2.605633257877e-04
1.300000000000e+01 1.170375194811e+06 1.000000000000e+00 5.268259098611e+01 0.000000000000e+00 8.290096508846e-03 -4.115754028086e+07 3.047461008280e+05 -2.579577253822e+05 -1.908579916114e+07 2.043302960309e-04 -1.575855832863e-05 3.020420824344e-04 0.000000000000e+00 2.016709905579e+07 3.546112268044e+07  2.683448113930e-04
1.400000000000e+01 1.216652637515e+06 1.000000000000e+00 5.330105528491e+01 0.000000000000e+00 8.605687426615e-03 -4.142900725071e+07 2.980484681216e+05 -3.312699583896e+05 -1.940623867961e+07 2.061492764081e-04 -1.625609675824e-05 3.112210958943e-04 0.000000000000e+00 2.038883862957e+07 3.562592998882e+07  2.756644210215e-04
1.500000000000e+01 1.261522918597e+06 1.000000000000e+00 5.387297891050e+01 0.000000000000e+00 8.902811283494e-03 -4.168217709400e+07 2.918091955234e+05 -3.960275740259e+05 -1.970233826591e+07 2.077438097199e-04 -1.671958557983e-05 3.198137976618e-04 0.000000000000e+00 2.059351431131e+07 3.578340401125e+07  2.825555742689e-04
1.600000000000e+01 1.305126560981e+06 1.000000000000e+00 5.440179052023e+01 0.000000000000e+00 9.182919094518e-03 -4.191765818779e+07 2.859464203595e+05 -4.538364768212e+05 -1.997596156771e+07 2.091605203030e-04 -1.715510602057e-05 3.278297610533e-04 0.000000000000e+00 2.078248541077e+07 3.593250980410e+07  2.890230528534e-04
1.700000000000e+01 1.347593761466e+06 1.000000000000e+00 5.489050806219e+01 0.000000000000e+00 9.447274352693e-03 -4.213585908827e+07 2.803967190368e+05 -5.059508428629e+05 -2.022866316434e+07 2.104419747314e-04 -1.756736954740e-05 3.352801439038e-04 0.000000000000e+00 2.095682436516e+07 3.607236898934e+07  2.950718920401e-04
1.800000000000e+01 1.389052735390e+06 1.000000000000e+00 5.534178435914e+01 0.000000000000e+00 9.696931854382e-03 -4.233766648827e+07 2.751236327300e+05 -5.530288297236e+05 -2.046183456762e+07 2.116069234249e-04 -1.795908453019e-05 3.421921850851e-04 0.000000000000e+00 2.111750996187e+07 3.620305698739e+07  3.007163650689e-04
1.900000000000e+01 1.429591500330e+06 1.000000000000e+00 5.575796323472e+01 0.000000000000e+00 9.932788863692e-03 -4.252400432694e+07 2.701077781067e+05 -5.953732766132e+05 -2.067666375466e+07 2.126651735072e-04 -1.833169087364e-05 3.485987611479e-04 0.000000000000e+00 2.126534711940e+07 3.632500769697e+07  3.059753404175e-04
2.000000000000e+01 1.469293608682e+06 1.000000000000e+00 5.614111083334e+01 0.000000000000e+00 1.015537643140e-02 -4.269760434569e+07 2.654352704974e+05 -6.309204308490e+05 -2.087407401175e+07 2.135495537881e-04 -1.867879143890e-05 3.546108192537e-04 0.000000000000e+00 2.140086626276e+07 3.644228569961e+07  3.109211388499e-04
2.100000000000e+01 1.508082098440e+06 1.000000000000e+00 5.651572149916e+01 0.000000000000e+00 1.036845083266e-02 -4.286330495564e+07 2.609301628770e+05 -6.676248330240e+05 -2.106638443191e+07 2.145379181678e-04 -1.901345657642e-05 3.603904713506e-04 0.000000000000e+00 2.153243807352e+07 3.655201133864e+07  3.157133562489e-04
2.200000000000e+01 1.546103877700e+06 1.000000000000e+00 5.687205991380e+01 0.000000000000e+00 1.057211920165e-02 -4.301966822952e+07 2.566029749354e+05 -7.024178806715e+05 -2.124891135156e+07 2.155097107246e-04 -1.933490482351e-05 3.658777294534e-04 0.000000000000e+00 2.165699915392e+07 3.665562028255e+07  3.202846551509e-04
2.300000000000e+01 1.583429864235e+06 1.000000000000e+00 5.720737052371e+01 0.000000000000e+00 1.076637152455e-02 -4.316820992677e+07 2.525430254864e+05 -7.323070760334e+05 -2.142025896044e+07 2.163567874427e-04 -1.963650106829e-05 3.711318990985e-04 0.000000000000e+00 2.177359198775e+07 3.675699418505e+07  3.246675486050e-04
2.400000000000e+01 1.620108796691e+06 1.000000000000e+00 5.752132531308e+01 0.000000000000e+00 1.095166717483e-02 -4.330800399727e+07 2.486815137200e+05 -7.585198625779e+05 -2.158040494118e+07 2.171127155370e-04 -1.992335622808e-05 3.761065605970e-04 0.000000000000e+00 2.188230960034e+07 3.685423390920e+07  3.288272796464e-04
2.500000000000e+01 1.656192917748e+06 1.000000000000e+00 5.781431139797e+01 0.000000000000e+00 1.112836363359e-02 -4.343898118864e+07 2.449976197589e+05 -7.813929286956e+05 -2.172956556120e+07 2.177881000299e-04 -2.019701692233e-05 3.807972411707e-04 0.000000000000e+00 2.198331322618e+07 3.694695280184e+07  3.327594419762e-04
2.600000000000e+01 1.691716213409e+06 1.000000000000e+00 5.808694277237e+01 0.000000000000e+00 1.129679907419e-02 -4.356115077741e+07 2.414759129742e+05 -8.012327816339e+05 -2.186805060443e+07 2.183941026238e-04 -2.045862942634e-05 3.852040625243e-04 0.000000000000e+00 2.207681138783e+07 3.703486100284e+07  3.364632592692e-04
2.700000000000e+01 1.726707846541e+06 1.000000000000e+00 5.833989622005e+01 0.000000000000e+00 1.145728728336e-02 -4.367469356727e+07 2.381032575900e+05 -8.182745049842e+05 -2.199622172885e+07 2.189374407648e-04 -2.070916954060e-05 3.893317259926e-04 0.000000000000e+00 2.216306326703e+07 3.711788250746e+07  3.399413379465e-04
2.800000000000e+01 1.761207355485e+06 1.000000000000e+00 5.857384815821e+01 0.000000000000e+00 1.161014698788e-02 -4.377963694502e+07 2.348583637410e+05 -8.329734349219e+05 -2.211446047467e+07 2.194312687215e-04 -2.095021879794e-05 3.931774905824e-04 0.000000000000e+00 2.224235695154e+07 3.719562084084e+07  3.431907927163e-04
2.900000000000e+01 1.795239383678e+06 1.000000000000e+00 5.878945157670e+01 0.000000000000e+00 1.175563907657e-02 -4.387622519203e+07 2.317388372253e+05 -8.453690367582e+05 -2.222308047465e+07 2.198781624035e-04 -2.118195505340e-05 3.967515396566e-04 0.000000000000e+00 2.231489156781e+07 3.726823058089e+07  3.462184522971e-04
3.000000000000e+01 1.828814801809e+06 1.000000000000e+00 5.898732735168e+01 0.000000000000e+00 1.189403179852e-02 -4.396469361091e+07 2.287322848966e+05 -8.556927020422e+05 -2.232243900304e+07 2.202826521852e-04 -2.140529894067e-05 4.000585488574e-04 0.000000000000e+00 2.238094177200e+07 3.733569506098e+07  3.490270643721e-04
3.100000000000e+01 1.861850495525e+06 1.000000000000e+00 5.918598549435e+01 0.000000000000e+00 1.202784564396e-02 -4.404924047660e+07 2.257590931384e+05 -8.689684122155e+05 -2.242170878092e+07 2.208295032093e-04 -2.162616461414e-05 4.032526142293e-04 0.000000000000e+00 2.244663922324e+07 3.739727559068e+07  3.517546572401e-04
3.200000000000e+01 1.894421488072e+06 1.000000000000e+00 5.937697639130e+01 0.000000000000e+00 1.215686521612e-02 -4.412867446265e+07 2.228403253666e+05 -8.825058274050e+05 -2.251682790262e+07 2.214120939621e-04 -2.184298736290e-05 4.062827918999e-04 0.000000000000e+00 2.250933606423e+07 3.745427113081e+07  3.543507400051e-04
3.300000000000e+01 1.926555659600e+06 1.000000000000e+00 5.955745626517e+01 0.000000000000e+00 1.228106241852e-02 -4.420242979583e+07 2.199763160662e+05 -8.954991504907e+05 -2.260639895493e+07 2.219995349585e-04 -2.205574233951e-05 4.091271075569e-04 0.000000000000e+00 2.256810930042e+07 3.750688135394e+07  3.567942311102e-04
3.400000000000e+01 1.958279953357e+06 1.000000000000e+00 5.972658109677e+01 0.000000000000e+00 1.240042842905e-02 -4.427047986397e+07 2.171709451484e+05 -9.076758620481e+05 -2.269003857799e+07 2.225785755696e-04 -2.226414132197e-05 4.117814442695e-04 0.000000000000e+00 2.262273143467e+07 3.755530935708e+07  3.590801147407e-04
3.500000000000e+01 1.989627564578e+06 1.000000000000e+00 5.988415469201e+01 0.000000000000e+00 1.251514635682e-02 -4.433194851270e+07 2.143800113131e+05 -9.199506616903e+05 -2.276769016159e+07 2.231796560080e-04 -2.247146783545e-05 4.142097248168e-04 0.000000000000e+00 2.267319644533e+07 3.759799376057e+07  3.611794175876e-04
3.600000000000e+01 2.020634135390e+06 1.000000000000e+00 6.003022103161e+01 0.000000000000e+00 1.262541051240e-02 -4.438590851563e+07 2.115497197857e+05 -9.335322703721e+05 -2.283945372325e+07 2.238409310458e-04 -2.268171806320e-05 4.163707687843e-04 0.000000000000e+00 2.271963150308e+07 3.763307474738e+07  3.630591411429e-04
3.700000000000e+01 2.051361737692e+06 1.000000000000e+00 6.016492785138e+01 0.000000000000e+00 1.273177091819e-02 -4.442894987924e+07 2.085062264992e+05 -9.523801591407e+05 -2.290554587170e+07 2.246971030546e-04 -2.290780613591e-05 4.181255555726e-04 0.000000000000e+00 2.276229197003e+07 3.765415892422e+07  3.646100246011e-04
3.800000000000e+01 2.083287020103e+06 1.000000000000e+00 6.028866548787e+01 0.000000000000e+00 1.284907746616e-02 -4.435203499508e+07 1.997931542177e+05 -1.100555912362e+06 -2.297060979705e+07 2.299706016933e-04 -2.355506293396e-05 4.150385448229e-04 0.000000000000e+00 2.280773356816e+07 3.745927486677e+07  3.624380366663e-04
3.900000000000e+01 2.113075158540e+06 1.000000000000e+00 6.040116681718e+01 0.000000000000e+00 1.294160146822e-02 -4.442127159058e+07 1.986785415379e+05 -1.076362718267e+06 -2.302387712156e+07 2.293774573423e-04 -2.363786273303e-05 4.179156497998e-04 0.000000000000e+00 2.284050381014e+07 3.754037721356e+07  3.648058727783e-04
4.000000000000e+01 2.142460697470e+06 1.000000000000e+00 6.050277272890e+01 0.000000000000e+00 1.302860239013e-02 -4.449261734730e+07 1.980423618712e+05 -1.041249709059e+06 -2.307068828803e+07 2.284661725618e-04 -2.368512179399e-05 4.209585477537e-04 0.000000000000e+00 2.286818511480e+07 3.763277748866e+07  3.673024063394e-04
4.200000000000e+01 2.199743116275e+06 1.000000000000e+00 6.070353137102e+01 0.000000000000e+00 1.319208854350e-02 -4.462479644936e+07 1.967914824614e+05 -9.778769770939e+05 -2.316222913331e+07 2.269567515956e-04 -2.377804426443e-05 4.267124806226e-04 0.000000000000e+00 2.292163418659e+07 3.780260055294e+07  3.720803890474e-04
4.400000000000e+01 2.255508367281e+06 1.000000000000e+00 6.088145664395e+01 0.000000000000e+00 1.334423052156e-02 -4.474357425439e+07 1.956380540547e+05 -9.144473236893e+05 -2.324172844694e+07 2.254978362009e-04 -2.386372751750e-05 4.320212708269e-04 0.000000000000e+00 2.296658334167e+07 3.796089348580e+07  3.765371472870e-04
5.000000000000e+01 2.407029548280e+06 1.000000000000e+00 6.110376251631e+01 0.000000000000e+00 1.365728261518e-02 -4.494991901407e+07 1.934712840289e+05 -7.295067267707e+05 -2.332780183193e+07 2.210306137123e-04 -2.402468757656e-05 4.420875044406e-04 0.000000000000e+00 2.300240919092e+07 3.830057664568e+07  3.851137211253e-04
6.500000000000e+01 2.738412900207e+06 1.000000000000e+00 6.116215475679e+01 0.000000000000e+00 1.418067650651e-02 -4.510390224879e+07 1.896625169901e+05 -2.672138490732e+05 -2.325935059744e+07 2.127687619985e-04 -2.430762455659e-05 4.567159083311e-04 0.000000000000e+00 2.287682223177e+07 3.883533987865e+07  3.980674194646e-04
8.000000000000e+01 2.993465893724e+06 1.000000000000e+00 6.080672396127e+01 0.000000000000e+00 1.441757107419e-02 -4.501742994804e+07 1.881433769068e+05 1.049113155478e+05 -2.300013876806e+07 2.063527223640e-04 -2.442047496278e-05 4.609098322115e-04 0.000000000000e+00 2.263755246685e+07 3.908223713504e+07  4.021173953056e-04
1.000000000000e+02 3.294145306883e+06 1.000000000000e+00 6.031955409286e+01 0.000000000000e+00 1.461082136266e-02 -4.483616818553e+07 1.868633865607e+05 5.006276989126e+05 -2.265918630824e+07 2.004213536068e-04 -2.451555995991e-05 4.629439208005e-04 0.000000000000e+00 2.233157559829e+07 3.926722602025e+07  4.043574947708e-04
1.860000000000e+02 3.892626698402e+06 1.000000000000e+00 5.884437027137e+01 0.000000000000e+00 1.481977513921e-02 -4.413743332886e+07 1.851876417926e+05 1.388905784522e+06 -2.167178578508e+07 1.896994859941e-04 -2.464004385698e-05 4.592622302626e-04 0.000000000000e+00 2.147343777647e+07 3.942939344621e+07  4.020040763459e-04
2.720000000000e+02 4.182948269365e+06 1.000000000000e+00 5.740652461788e+01 0.000000000000e+00 1.458718311587e-02 -4.346815690889e+07 1.876004124857e+05 1.784993282225e+06 -2.085136385573e+07 1.840855099314e-04 -2.446080946262e-05 4.435012370873e-04 0.000000000000e+00 2.084484249413e+07 3.919172590098e+07  3.882443360552e-04
3.580000000000e+02 4.324314095300e+06 1.000000000000e+00 5.632819007730e+01 0.000000000000e+00 1.435688166790e-02 -4.295020401357e+07 1.897984691732e+05 2.031093057924e+06 -2.024614014971e+07 1.808440226772e-04 -2.429752525155e-05 4.301623482469e-04 0.000000000000e+00 2.038841703512e+07 3.895691762902e+07  3.764611880741e-04
4.440000000000e+02 4.396443065099e+06 1.000000000000e+00 5.547754095058e+01 0.000000000000e+00 1.414564256820e-02 -4.254293279008e+07 1.918119206918e+05 2.193027695777e+06 -1.977859932164e+07 1.786054373639e-04 -2.414795456731e-05 4.188112611816e-04 0.000000000000e+00 2.004283480531e+07 3.874593000255e+07  3.664016612975e-04
5.300000000000e+02 4.435407630124e+06 1.000000000000e+00 5.480783314931e+01 0.000000000000e+00 1.396437609487e-02 -4.222300073453e+07 1.935388367161e+05 2.304157500761e+06 -1.941554661540e+07 1.770038131955e-04 -2.401966937694e-05 4.094541248492e-04 0.000000000000e+00 1.977812994972e+07 3.856694228538e+07  3.581046248875e-04
6.160000000000e+02 4.457923140021e+06 1.000000000000e+00 5.428842769212e+01 0.000000000000e+00 1.381509286248e-02 -4.197534480947e+07 1.949611758593e+05 2.380776016804e+06 -1.913693906365e+07 1.758541813472e-04 -2.391400989773e-05 4.019516749516e-04 0.000000000000e+00 1.957716928544e+07 3.842068683151e+07  3.514549743027e-04
7.020000000000e+02 4.471733458232e+06 1.000000000000e+00 5.390298112949e+01 0.000000000000e+00 1.370090645609e-02 -4.179182156226e+07 1.960507131435e+05 2.433753015458e+06 -1.893141043915e+07 1.750368387621e-04 -2.383307284234e-05 3.962854717058e-04 0.000000000000e+00 1.942982632865e+07 3.830927216864e+07  3.464383926148e-04
7.880000000000e+02 4.481352036468e+06 1.000000000000e+00 5.359220289655e+01 0.000000000000e+00 1.359888872834e-02 -4.164599970456e+07 1.970359252183e+05 2.464693815434e+06 -1.876982798963e+07 1.744514453514e-04 -2.375988565963e-05 3.914330675800e-04 0.000000000000e+00 1.931704462625e+07 3.821132273536e+07  3.421413235526e-04
8.740000000000e+02 4.489738131595e+06 1.000000000000e+00 5.310537577069e+01 0.000000000000e+00 1.345373923436e-02 -4.141398278910e+07 1.984079978882e+05 2.531950156316e+06 -1.851006776499e+07 1.734209795818e-04 -2.365796026130e-05 3.842829233260e-04 0.000000000000e+00 1.913070013259e+07 3.807122967857e+07  3.358341518823e-04
9.370000000000e+02 4.495111994429e+06 1.000000000000e+00 5.275159323252e+01 0.000000000000e+00 1.333581861537e-02 -4.124367646470e+07 1.995040020641e+05 2.568479835220e+06 -1.832440913159e+07 1.728507509619e-04 -2.357654280823e-05 3.787438478733e-04 0.000000000000e+00 1.899986858702e+07 3.795753861353e+07  3.309466512827e-04
1.000000000000e+03 4.499302027140e+06 1.000000000000e+00 5.246388243437e+01 0.000000000000e+00 1.323758247424e-02 -4.110128113799e+07 2.003858046768e+05 2.597889553340e+06 -1.817230862425e+07 1.724902728243e-04 -2.351103747129e-05 3.741867614165e-04 0.000000000000e+00 1.889190006963e+07 3.786157259548e+07  3.269302016079e-04
1.100000000000e+03 4.503447343828e+06 1.000000000000e+00 5.216936964690e+01 0.000000000000e+00 1.313511636604e-02 -4.095341880621e+07 2.012896203028e+05 2.627120104371e+06 -1.801622125439e+07 1.721847714098e-04 -2.344389688193e-05 3.694749367172e-04 0.000000000000e+00 1.878083998541e+07 3.776088618392e+07  3.227850922059e-04
1.200000000000e+03 4.506708720430e+06 1.000000000000e+00 5.192025738058e+01 0.000000000000e+00 1.304976398114e-02 -4.082992611509e+07 2.020534016099e+05 2.652480571702e+06 -1.788449463468e+07 1.718789397764e-04 -2.338715884197e-05 3.655241939146e-04 0.000000000000e+00 1.868731339269e+07 3.767774423442e+07  3.193200165336e-04
1.300000000000e+03 4.509614096533e+06 1.000000000000e+00 5.168219822456e+01 0.000000000000e+00 1.296847459084e-02 -4.071244775328e+07 2.027844526067e+05 2.676781995520e+06 -1.775875821374e+07 1.715722118660e-04 -2.333285219650e-05 3.617566083071e-04 0.000000000000e+00 1.859814132383e+07 3.759890393696e+07  3.160233410191e-04
1.400000000000e+03 4.512353612459e+06 1.000000000000e+00 5.143780994797e+01 0.000000000000e+00 1.288454505345e-02 -4.059170728257e+07 2.035374368454e+05 2.701384232503e+06 -1.762973752128e+07 1.712646607723e-04 -2.327691622448e-05 3.578782085322e-04 0.000000000000e+00 1.850668685711e+07 3.751764188317e+07  3.126370910119e-04
1.500000000000e+03 4.514993501238e+06 1.000000000000e+00 5.117703367254e+01 0.000000000000e+00 1.279406548447e-02 -4.046236053582e+07 2.043441368010e+05 2.727041005361e+06 -1.749208266854e+07 1.709560739783e-04 -2.321698994207e-05 3.537182798510e-04 0.000000000000e+00 1.840913406633e+07 3.743007862725e+07  3.090135889877e-04
1.600000000000e+03 4.517554546543e+06 1.000000000000e+00 5.089373351050e+01 0.000000000000e+00 1.269464180947e-02 -4.032115215205e+07 2.052244612442e+05 2.754190399520e+06 -1.734253810652e+07 1.706464445006e-04 -2.315159441199e-05 3.491721736162e-04 0.000000000000e+00 1.830316661969e+07 3.733385218881e+07  3.050646077045e-04
1.700000000000e+03 4.520041835520e+06 1.000000000000e+00 5.058412186792e+01 0.000000000000e+00 1.258479066016e-02 -4.016608085824e+07 2.061903928443e+05 2.783099004827e+06 -1.717909784568e+07 1.703355971538e-04 -2.307983949313e-05 3.441752835534e-04 0.000000000000e+00 1.818735989970e+07 3.722752898660e+07  3.007383846307e-04
1.800000000000e+03 4.522455244882e+06 1.000000000000e+00 5.024591284061e+01 0.000000000000e+00 1.246361707645e-02 -3.999593603281e+07 2.072498233808e+05 2.813931800688e+06 -1.700054915656e+07 1.700234536452e-04 -2.300113893899e-05 3.386886932324e-04 0.000000000000e+00 1.806085112956e+07 3.711026793255e+07  2.960069957897e-04
1.900000000000e+03 4.524794537194e+06 1.000000000000e+00 4.987782121186e+01 0.000000000000e+00 1.233061514420e-02 -3.981004423194e+07 2.084063054274e+05 2.846765961062e+06 -1.680621703946e+07 1.697099561854e-04 -2.291522884410e-05 3.326901976971e-04 0.000000000000e+00 1.792316510345e+07 3.698161611728e+07  2.908585930252e-04
2.000000000000e+03 4.527058883136e+06 1.000000000000e+00 4.947924582705e+01 0.000000000000e+00 1.218555279657e-02 -3.960808290272e+07 2.096622122804e+05 2.881653628188e+06 -1.659577868955e+07 1.693950954167e-04 -2.282193290645e-05 3.261697437650e-04 0.000000000000e+00 1.777406932136e+07 3.684140316829e+07  2.852934753838e-04