 TITLE = "Time curves in points"
 VARIABLES = "TIME"  "PRESSURE1"  "SATURATION1"  "TEMPERATURE1"  "DISPLACEMENT_X1"  "DISPLACEMENT_Y1"  "STRESS_XX"  "STRESS_XY"  "STRESS_YY"  "STRESS_ZZ"  "STRAIN_XX"  "STRAIN_XY"  "STRAIN_YY"  "STRAIN_PLS"  p_(1st_Invariant)  q_(2nd_Invariant)   Effective_Strain
 ZONE T="POINT=POINT11"
0.000000000000e+00 1.000000000000e+05 1.000000000000e+00 2.500000000000e+01 0.000000000000e+00 0.000000000000e+00 -1.238386611914e+08 -7.026292241243e+06 -1.980235283503e+06 -3.574704974809e+07 0.000000000000e+00 0.000000000000e+00 0.000000000000e+00 0.000000000000e+00 5.385531540767e+07 1.096494834153e+08  0.000000000000e+00
1.000000000000e-03 1.321562803133e+05 1.000000000000e+00 2.500658919670e+01 0.000000000000e+00 6.372094559960e-05 -1.239407096956e+08 -7.005444024139e+06 -1.926893938764e+06 -3.576028201833e+07 2.507590758383e-05 3.154487440479e-05 4.582591643270e-05 0.000000000000e+00 5.387596188423e+07 1.097777634261e+08  6.756424066236e-05
2.000000000000e-03 1.547721087935e+05 1.000000000000e+00 2.503242649855e+01 0.000000000000e+00 6.364186447568e-05 -1.239344458985e+08 -7.005472308289e+06 -1.925808479651e+06 -3.576378587911e+07 2.554316240950e-05 3.156874959011e-05 4.662811429234e-05 0.000000000000e+00 5.387468008576e+07 1.097716754476e+08  6.801001796918e-05
3.000000000000e-03 1.705465206431e+05 1.000000000000e+00 2.508821888304e+01 0.000000000000e+00 6.368649087146e-05 -1.239392138881e+08 -7.005364842636e+06 -1.930057072948e+06 -3.577907263004e+07 2.599814183921e-05 3.119316797014e-05 4.414665538312e-05 0.000000000000e+00 5.388278119703e+07 1.097694208945e+08  6.630339913059e-05
4.000000000000e-03 1.815030669678e+05 1.000000000000e+00 2.517801402977e+01 0.000000000000e+00 6.367518781549e-05 -1.239564000291e+08 -7.005077089746e+06 -1.937965656847e+06 -3.580699132086e+07 2.642774312633e-05 3.055172673533e-05 3.966456825064e-05 0.000000000000e+00 5.390045233560e+07 1.097732984653e+08  6.343250412720e-05
1.000000000000e-02 1.978603628676e+05 1.000000000000e+00 2.624254793578e+01 0.000000000000e+00 6.347435463898e-05 -1.242569517847e+08 -7.000916572944e+06 -2.014919192213e+06 -3.616579973911e+07 2.834696923307e-05 2.467227523989e-05 1.880386649062e-06 0.000000000000e+00 5.414589023866e+07 1.099170715593e+08  5.079317624152e-05
2.000000000000e-02 1.963680346369e+05 1.000000000000e+00 2.811855859645e+01 0.000000000000e+00 6.578155610590e-05 -1.248174129254e+08 -6.994416461274e+06 -2.146076768329e+06 -3.680989306571e+07 3.079554302873e-05 1.457830012172e-05 -6.151058290885e-05 0.000000000000e+00 5.459112758648e+07 1.102013874607e+08  8.522763393542e-05
3.000000000000e-02 1.864315871100e+05 1.000000000000e+00 2.977104240945e+01 0.000000000000e+00 7.025209601038e-05 -1.253158235162e+08 -6.989680651979e+06 -2.272315619915e+06 -3.738401828258e+07 3.289898488420e-05 4.631240192271e-06 -1.263920119599e-04 0.000000000000e+00 5.499071913956e+07 1.104483424154e+08  1.458759676636e-04
4.000000000000e-02 1.732308016779e+05 1.000000000000e+00 3.117078428574e+01 0.000000000000e+00 7.731818562814e-05 -1.257356063305e+08 -6.986573042867e+06 -2.395862930939e+06 -3.787603610805e+07 3.489552376193e-05 -5.305451319796e-06 -1.947941467506e-04 0.000000000000e+00 5.533583512318e+07 1.106429217970e+08  2.145794594193e-04
5.000000000000e-02 1.590712169439e+05 1.000000000000e+00 3.235484757263e+01 0.000000000000e+00 8.540920429451e-05 -1.260878499180e+08 -6.984686262639e+06 -2.515772348098e+06 -3.829699793664e+07 3.683910375900e-05 -1.507336275912e-05 -2.653582297573e-04 0.000000000000e+00 5.563354006757e+07 1.107932831996e+08  2.867564956887e-04
6.000000000000e-02 1.446828136011e+05 1.000000000000e+00 3.336666820307e+01 0.000000000000e+00 9.602639345891e-05 -1.263865233729e+08 -6.983723787345e+06 -2.630341211662e+06 -3.866034791130e+07 3.861773622360e-05 -2.457595722744e-05 -3.359538459112e-04 0.000000000000e+00 5.589240416529e+07 1.109104824952e+08  3.593633622939e-04
7.000000000000e-02 1.309553152747e+05 1.000000000000e+00 3.424269924722e+01 0.000000000000e+00 1.064461154658e-04 -1.266437560084e+08 -6.983440381000e+06 -2.740176845011e+06 -3.897825306614e+07 4.025126829693e-05 -3.380356009187e-05 -4.062237627604e-04 0.000000000000e+00 5.612072863984e+07 1.110025813690e+08  4.317603197595e-04
8.000000000000e-02 1.185266125142e+05 1.000000000000e+00 3.501114549322e+01 0.000000000000e+00 1.176486757322e-04 -1.268675505717e+08 -6.983669592500e+06 -2.846606866985e+06 -3.926003027358e+07 4.179583601283e-05 -4.283479191172e-05 -4.764381654550e-04 0.000000000000e+00 5.632472923742e+07 1.110739378528e+08  5.041406619566e-04
9.000000000000e-02 1.083066492509e+05 1.000000000000e+00 3.569332899835e+01 0.000000000000e+00 1.280199426467e-04 -1.270647199455e+08 -6.984292079819e+06 -2.950941102235e+06 -3.951306991611e+07 4.328399524350e-05 -5.173433125468e-05 -5.469862253672e-04 0.000000000000e+00 5.650957698794e+07 1.111282880282e+08  5.768643750951e-04
1.000000000000e-01 1.013009242719e+05 1.000000000000e+00 3.630541896253e+01 0.000000000000e+00 1.374521341672e-04 -1.272411862809e+08 -6.985185740929e+06 -3.051455994355e+06 -3.974232954363e+07 4.468721485277e-05 -6.034957314891e-05 -6.163531451078e-04 0.000000000000e+00 5.667832393962e+07 1.111713006126e+08  6.483498014297e-04
2.000000000000e-01 1.227583401152e+05 1.000000000000e+00 3.981142503252e+01 0.000000000000e+00 2.678067819612e-04 -1.282469947244e+08 -6.997997894995e+06 -3.753067569220e+06 -4.109696555359e+07 5.367858359360e-05 -1.222516579141e-04 -1.133875373660e-03 0.000000000000e+00 5.769900928242e+07 1.113154617448e+08  1.180786170713e-03
3.000000000000e-01 1.535262526101e+05 1.000000000000e+00 4.213322259454e+01 0.000000000000e+00 4.141677028982e-04 -1.288755987695e+08 -7.013870631959e+06 -4.395273098760e+06 -4.204197628869e+07 6.393340656032e-05 -1.781232020352e-04 -1.632371272944e-03 0.000000000000e+00 5.843761605232e+07 1.112381904311e+08  1.693596804074e-03
4.000000000000e-01 1.848711887700e+05 1.000000000000e+00 4.382361384831e+01 0.000000000000e+00 5.537224592837e-04 -1.293213495885e+08 -7.030494799936e+06 -4.992129872632e+06 -4.276946024547e+07 7.294636455622e-05 -2.305186651515e-04 -2.107267067037e-03 0.000000000000e+00 5.902764656886e+07 1.110690736814e+08  2.181520043584e-03
5.000000000000e-01 2.146182721516e+05 1.000000000000e+00 4.513443190839e+01 0.000000000000e+00 6.888985071098e-04 -1.296547878764e+08 -7.045714169627e+06 -5.559162568870e+06 -4.336426460323e+07 8.227900654857e-05 -2.793749438870e-04 -2.560529184981e-03 0.000000000000e+00 5.952607168284e+07 1.108441628955e+08  2.647245439594e-03
6.000000000000e-01 2.422349190066e+05 1.000000000000e+00 4.619629486424e+01 0.000000000000e+00 8.203748116714e-04 -1.299176746222e+08 -7.060425721706e+06 -6.108331774381e+06 -4.387353944015e+07 9.037093145379e-05 -3.270177526938e-04 -2.997969546805e-03 0.000000000000e+00 5.996651527890e+07 1.105840294841e+08  3.096407505638e-03
7.000000000000e-01 2.677989511646e+05 1.000000000000e+00 4.708364073506e+01 0.000000000000e+00 9.479564968425e-04 -1.301370011413e+08 -7.073999849269e+06 -6.630439124551e+06 -4.431980854227e+07 9.687906252897e-05 -3.729187833669e-04 -3.411560186919e-03 0.000000000000e+00 6.036241626937e+07 1.103159073232e+08  3.520772993444e-03
8.000000000000e-01 2.915671400692e+05 1.000000000000e+00 4.784280359403e+01 0.000000000000e+00 1.071366243868e-03 -1.303325173079e+08 -7.085800199845e+06 -7.109101629291e+06 -4.471436019723e+07 1.018525962476e-04 -4.153212499850e-04 -3.788097196988e-03 0.000000000000e+00 6.071865971146e+07 1.100679014457e+08  3.906834662692e-03
9.000000000000e-01 3.136002835465e+05 1.000000000000e+00 4.850368017679e+01 0.000000000000e+00 1.191318547166e-03 -1.305059583525e+08 -7.096200036251e+06 -7.557141922933e+06 -4.506902162797e+07 1.063928355777e-04 -4.545199546318e-04 -4.136957613954e-03 0.000000000000e+00 6.104404063448e+07 1.098297752594e+08  4.264463102643e-03
1.000000000000e+00 3.340884170568e+05 1.000000000000e+00 4.908706938572e+01 0.000000000000e+00 1.308031251564e-03 -1.306655716623e+08 -7.104963227478e+06 -7.979362583013e+06 -4.539273059333e+07 1.108068048689e-04 -4.907300120021e-04 -4.462236993334e-03 0.000000000000e+00 6.134588827953e+07 1.096038467456e+08  4.597905087159e-03
2.000000000000e+00 4.691559606783e+05 1.000000000000e+00 5.224848730855e+01 0.000000000000e+00 2.264537393299e-03 -1.317476278156e+08 -7.149665400639e+06 -1.110464148938e+07 -4.748361847618e+07 1.269598975808e-04 -7.507478771292e-04 -6.728070740182e-03 0.000000000000e+00 6.344529592705e+07 1.079010882205e+08  6.915787518253e-03
3.000000000000e+00 5.730621993731e+05 1.000000000000e+00 5.427679455464e+01 0.000000000000e+00 3.078866145415e-03 -1.325629461899e+08 -7.174395021645e+06 -1.366539655300e+07 -4.904169341876e+07 1.379024520070e-04 -9.559609320909e-04 -8.520147312827e-03 0.000000000000e+00 6.509001205387e+07 1.064723931768e+08  8.748054665781e-03
4.000000000000e+00 6.596126034108e+05 1.000000000000e+00 5.575088147689e+01 0.000000000000e+00 3.787053276060e-03 -1.332221825935e+08 -7.189669593040e+06 -1.583155629674e+07 -5.029291689552e+07 1.462516710040e-04 -1.125713538965e-03 -1.000414713067e-02 0.000000000000e+00 6.644888526191e+07 1.052510230805e+08  1.026494839313e-02
5.000000000000e+00 7.355452377896e+05 1.000000000000e+00 5.693149995896e+01 0.000000000000e+00 4.413342885965e-03 -1.337855792490e+08 -7.200018660359e+06 -1.769646835212e+07 -5.134769511028e+07 1.532600961008e-04 -1.269774590913e-03 -1.126690041428e-02 0.000000000000e+00 6.760991423712e+07 1.042020467281e+08  1.155553038063e-02
6.000000000000e+00 8.043233661910e+05 1.000000000000e+00 5.796438519089e+01 0.000000000000e+00 4.977476449836e-03 -1.342780366918e+08 -7.208221837727e+06 -1.936293045508e+07 -5.228147995314e+07 1.598604113937e-04 -1.397620175658e-03 -1.238755456092e-02 0.000000000000e+00 6.864081570001e+07 1.032576840526e+08  1.270107748915e-02
7.000000000000e+00 8.681486722727e+05 1.000000000000e+00 5.881773266898e+01 0.000000000000e+00 5.487623512511e-03 -1.347044146019e+08 -7.215223883846e+06 -2.084314500447e+07 -5.309255352048e+07 1.652207406633e-04 -1.510954578935e-03 -1.338020847540e-02 0.000000000000e+00 6.954670437562e+07 1.024140265474e+08  1.371557202276e-02
8.000000000000e+00 9.277122832900e+05 1.000000000000e+00 5.964548359829e+01 0.000000000000e+00 5.956257033028e-03 -1.351133069248e+08 -7.220804601809e+06 -2.217436314345e+07 -5.384357982583e+07 1.698805265410e-04 -1.612471969457e-03 -1.426855932068e-02 0.000000000000e+00 7.037708329803e+07 1.016753484505e+08  1.462343298983e-02
9.000000000000e+00 9.841048929835e+05 1.000000000000e+00 6.039584327610e+01 0.000000000000e+00 6.389986516352e-03 -1.354825571529e+08 -7.225751402200e+06 -2.339484954442e+07 -5.452842994438e+07 1.745192247838e-04 -1.705208442400e-03 -1.508210536423e-02 0.000000000000e+00 7.113527888056e+07 1.009945385590e+08  1.545495661624e-02
1.000000000000e+01 1.037819556408e+06 1.000000000000e+00 6.107245844144e+01 0.000000000000e+00 6.793388104514e-03 -1.358134314208e+08 -7.230354250164e+06 -2.452473276884e+07 -5.515489829255e+07 1.789661503382e-04 -1.790961511410e-03 -1.583408517976e-02 0.000000000000e+00 7.183102082740e+07 1.003564860623e+08  1.622364561489e-02
1.100000000000e+01 1.089158496838e+06 1.000000000000e+00 6.170901697769e+01 0.000000000000e+00 7.170520606676e-03 -1.361278054394e+08 -7.234427132648e+06 -2.556612538318e+07 -5.573810991669e+07 1.824959583869e-04 -1.870172452878e-03 -1.652513945113e-02 0.000000000000e+00 7.247734691308e+07 9.977664684031e+07  1.692991272352e-02
1.200000000000e+01 1.138516106949e+06 1.000000000000e+00 6.228858435153e+01 0.000000000000e+00 7.523969776067e-03 -1.364187748308e+08 -7.237885936304e+06 -2.652392708997e+07 -5.627366524156e+07 1.858005905992e-04 -1.942729416317e-03 -1.715962682158e-02 0.000000000000e+00 7.307212238745e+07 9.924586900248e+07  1.757834395125e-02
1.300000000000e+01 1.186155559904e+06 1.000000000000e+00 6.281335036953e+01 0.000000000000e+00 7.856341415199e-03 -1.366844915608e+08 -7.241100413919e+06 -2.742050030624e+07 -5.676880983432e+07 1.887574547760e-04 -2.010699042300e-03 -1.775252144953e-02 0.000000000000e+00 7.362460056713e+07 9.874477316316e+07  1.818425967351e-02
1.400000000000e+01 1.232794460601e+06 1.000000000000e+00 6.328719669981e+01 0.000000000000e+00 8.169534708542e-03 -1.369274826530e+08 -7.244122550525e+06 -2.825919251075e+07 -5.722631395318e+07 1.913640447445e-04 -2.074318203583e-03 -1.830620674302e-02 0.000000000000e+00 7.413766303897e+07 9.827266041065e+07  1.875007635481e-02
1.500000000000e+01 1.277982880797e+06 1.000000000000e+00 6.371396674996e+01 0.000000000000e+00 8.464546907379e-03 -1.371509394604e+08 -7.246813051220e+06 -2.903880456802e+07 -5.764764583728e+07 1.936695037246e-04 -2.133411489052e-03 -1.882007486400e-02 0.000000000000e+00 7.461246328858e+07 9.783294691231e+07  1.927516365863e-02
1.600000000000e+01 1.321868393102e+06 1.000000000000e+00 6.409718126667e+01 0.000000000000e+00 8.743048585577e-03 -1.373531782818e+08 -7.249441496383e+06 -2.977348651017e+07 -5.803774181485e+07 1.957026610106e-04 -2.189238190592e-03 -1.930375523883e-02 0.000000000000e+00 7.505480220229e+07 9.741284074398e+07  1.976940448484e-02
1.700000000000e+01 1.364582364112e+06 1.000000000000e+00 6.443989680906e+01 0.000000000000e+00 9.006473580400e-03 -1.375322702840e+08 -7.251860211704e+06 -3.047257447301e+07 -5.839976625977e+07 1.979606048898e-04 -2.242227890029e-03 -1.976336919377e-02 0.000000000000e+00 7.546820367227e+07 9.700308386998e+07  2.023919653897e-02
1.800000000000e+01 1.406266469302e+06 1.000000000000e+00 6.474480269154e+01 0.000000000000e+00 9.255909261840e-03 -1.376888041492e+08 -7.254184585972e+06 -3.114187101564e+07 -5.873642938548e+07 2.004434240214e-04 -2.292909578852e-03 -2.020318293922e-02 0.000000000000e+00 7.585570151678e+07 9.659949600457e+07  2.068890225741e-02
1.900000000000e+01 1.447009435937e+06 1.000000000000e+00 6.501430106622e+01 0.000000000000e+00 9.492220783701e-03 -1.378234761483e+08 -7.256622920557e+06 -3.178430152813e+07 -5.904947133358e+07 2.029998238014e-04 -2.341659899558e-03 -2.062529432019e-02 0.000000000000e+00 7.621908300332e+07 9.620028931985e+07  2.112063017742e-02
2.000000000000e+01 1.486894329421e+06 1.000000000000e+00 6.525046042328e+01 0.000000000000e+00 9.715345614445e-03 -1.379461113847e+08 -7.258794698506e+06 -3.238097851825e+07 -5.933617372217e+07 2.053155382552e-04 -2.386888118885e-03 -2.101709867027e-02 0.000000000000e+00 7.655442120838e+07 9.582860410065e+07  2.152132506582e-02
2.100000000000e+01 1.525849531847e+06 1.000000000000e+00 6.550408013656e+01 0.000000000000e+00 9.928507392573e-03 -1.380713264245e+08 -7.260590685794e+06 -3.294956101397e+07 -5.961851445372e+07 2.075674830727e-04 -2.429933630285e-03 -2.138928961246e-02 0.000000000000e+00 7.687980063074e+07 9.548025819345e+07  2.190201469587e-02
2.200000000000e+01 1.564034463581e+06 1.000000000000e+00 6.574140182376e+01 0.000000000000e+00 1.013252126023e-02 -1.381846377177e+08 -7.262419324988e+06 -3.349935831106e+07 -5.988734943245e+07 2.099293694176e-04 -2.471587760059e-03 -2.174934570566e-02 0.000000000000e+00 7.719044848708e+07 9.513741524610e+07  2.227038781792e-02
2.300000000000e+01 1.601514635910e+06 1.000000000000e+00 6.595789737850e+01 0.000000000000e+00 1.032695746384e-02 -1.382933227792e+08 -7.264027764254e+06 -3.401211844455e+07 -6.013785655316e+07 2.119374947140e-04 -2.510438374167e-03 -2.208497520473e-02 0.000000000000e+00 7.748109925896e+07 9.482087656829e+07  2.261368134785e-02
2.400000000000e+01 1.638336215366e+06 1.000000000000e+00 6.615302041940e+01 0.000000000000e+00 1.051262400874e-02 -1.383928483662e+08 -7.265518431848e+06 -3.450044958895e+07 -6.037264363389e+07 2.138283952807e-04 -2.547460922366e-03 -2.240442299071e-02 0.000000000000e+00 7.775531386301e+07 9.451687638554e+07  2.294042862280e-02
2.500000000000e+01 1.674554485485e+06 1.000000000000e+00 6.632710006372e+01 0.000000000000e+00 1.068996111420e-02 -1.384817627322e+08 -7.267033042309e+06 -3.496827842305e+07 -6.059263595415e+07 2.156222027870e-04 -2.583022474871e-03 -2.271048692310e-02 0.000000000000e+00 7.801422570313e+07 9.422107996192e+07  2.325350747204e-02
2.600000000000e+01 1.710201348263e+06 1.000000000000e+00 6.648073203976e+01 0.000000000000e+00 1.085935324262e-02 -1.385592784121e+08 -7.268457810623e+06 -3.541688152810e+07 -6.079814748467e+07 2.175862452870e-04 -2.617000881117e-03 -2.300384800488e-02 0.000000000000e+00 7.825810247495e+07 9.393172800848e+07  2.355367845063e-02
2.700000000000e+01 1.745310255366e+06 1.000000000000e+00 6.661459188943e+01 0.000000000000e+00 1.102114800140e-02 -1.386250351545e+08 -7.269932541684e+06 -3.584942835474e+07 -6.099026298291e+07 2.196170763312e-04 -2.649793846839e-03 -2.328684828451e-02 0.000000000000e+00 7.848824216403e+07 9.364602576709e+07  2.384332079463e-02
2.800000000000e+01 1.779924773093e+06 1.000000000000e+00 6.672935958690e+01 0.000000000000e+00 1.117573762053e-02 -1.386782492025e+08 -7.271549509674e+06 -3.626985465645e+07 -6.117019605411e+07 2.217557596160e-04 -2.681738034293e-03 -2.356230197701e-02 0.000000000000e+00 7.870609997102e+07 9.336020879289e+07  2.412532865890e-02
2.900000000000e+01 1.814068114876e+06 1.000000000000e+00 6.682569370622e+01 0.000000000000e+00 1.132336195531e-02 -1.387190771374e+08 -7.273226965451e+06 -3.667766469743e+07 -6.133797849559e+07 2.240999642198e-04 -2.712697156949e-03 -2.382975889354e-02 0.000000000000e+00 7.891157344348e+07 9.307473969700e+07  2.439926341981e-02
3.000000000000e+01 1.847751175360e+06 1.000000000000e+00 6.690421870234e+01 0.000000000000e+00 1.146431288475e-02 -1.387478552242e+08 -7.275020953052e+06 -3.707522816382e+07 -6.149463512000e+07 2.266014241877e-04 -2.742913848419e-03 -2.409087763020e-02 0.000000000000e+00 7.910590616933e+07 9.278805452512e+07  2.466680947182e-02
3.100000000000e+01 1.880894611771e+06 1.000000000000e+00 6.700421408375e+01 0.000000000000e+00 1.160044005585e-02 -1.387786263183e+08 -7.276723058323e+06 -3.746566269066e+07 -6.165455314843e+07 2.292931082667e-04 -2.772557732682e-03 -2.434702023484e-02 0.000000000000e+00 7.929961405246e+07 9.250742098261e+07  2.492937630056e-02
3.200000000000e+01 1.913581044444e+06 1.000000000000e+00 6.709823362326e+01 0.000000000000e+00 1.173204874562e-02 -1.388008960480e+08 -7.278607819185e+06 -3.785396233971e+07 -6.180983506723e+07 2.322022673318e-04 -2.802101729589e-03 -2.460230514793e-02 0.000000000000e+00 7.948823115164e+07 9.222163391768e+07  2.519117642808e-02
3.300000000000e+01 1.945836759411e+06 1.000000000000e+00 6.718200325324e+01 0.000000000000e+00 1.185920992352e-02 -1.388132384419e+08 -7.280695137035e+06 -3.824048481357e+07 -6.195916914446e+07 2.353125891688e-04 -2.831595654551e-03 -2.485703385212e-02 0.000000000000e+00 7.967096413331e+07 9.192946713763e+07  2.545251419384e-02
3.400000000000e+01 1.977683955850e+06 1.000000000000e+00 6.725448079532e+01 0.000000000000e+00 1.198191448640e-02 -1.388157590214e+08 -7.282959616161e+06 -3.862415222089e+07 -6.210198528167e+07 2.385792692287e-04 -2.860958135557e-03 -2.511030925961e-02 0.000000000000e+00 7.984729884131e+07 9.163192348877e+07  2.571245991293e-02
3.500000000000e+01 2.009163290122e+06 1.000000000000e+00 6.731542028234e+01 0.000000000000e+00 1.210058689227e-02 -1.388048659812e+08 -7.285383959075e+06 -3.901257733005e+07 -6.223962220424e+07 2.424256785215e-04 -2.890577849563e-03 -2.536742060659e-02 0.000000000000e+00 8.001902183851e+07 9.132002507403e+07  2.597654390999e-02
3.600000000000e+01 2.040320277005e+06 1.000000000000e+00 6.736484979958e+01 0.000000000000e+00 1.221572157036e-02 -1.387756825141e+08 -7.288284286515e+06 -3.941800937774e+07 -6.237462861067e+07 2.469020604456e-04 -2.921626574503e-03 -2.563687080352e-02 0.000000000000e+00 8.018944016750e+07 9.098018779457e+07  2.625352561031e-02
3.700000000000e+01 2.071240992759e+06 1.000000000000e+00 6.740291338406e+01 0.000000000000e+00 1.232883178384e-02 -1.387122948567e+08 -7.292166410396e+06 -3.987443195452e+07 -6.251333600700e+07 2.530755958308e-04 -2.956552262306e-03 -2.594213515888e-02 0.000000000000e+00 8.036668760608e+07 9.057256371357e+07  2.656778780799e-02
3.800000000000e+01 2.104214843803e+06 1.000000000000e+00 6.743016255845e+01 0.000000000000e+00 1.248541645558e-02 -1.381051421767e+08 -7.315406590873e+06 -4.149148098398e+07 -6.286476595755e+07 2.893027963684e-04 -3.081277528766e-03 -2.704958329097e-02 0.000000000000e+00 8.082046303942e+07 8.880659349048e+07  2.771411167686e-02
3.900000000000e+01 2.134028859186e+06 1.000000000000e+00 6.744583771760e+01 0.000000000000e+00 1.257501221637e-02 -1.382035687151e+08 -7.313863622679e+06 -4.156492165527e+07 -6.292206449722e+07 2.865458804865e-04 -3.086275683747e-03 -2.709543748548e-02 0.000000000000e+00 8.089685162255e+07 8.883528617558e+07  2.775939876602e-02
4.000000000000e+01 2.163414648802e+06 1.000000000000e+00 6.745056538365e+01 0.000000000000e+00 1.265728200036e-02 -1.383193066999e+08 -7.311814511313e+06 -4.156168026826e+07 -6.295707202940e+07 2.820217421325e-04 -3.085853953324e-03 -2.709059597170e-02 0.000000000000e+00 8.094601966586e+07 8.893830239138e+07  2.775225301305e-02
4.200000000000e+01 2.220697509681e+06 1.000000000000e+00 6.749194524000e+01 0.000000000000e+00 1.281143655011e-02 -1.385428330291e+08 -7.307874112871e+06 -4.155604375676e+07 -6.303237821398e+07 2.737105336951e-04 -3.085080769464e-03 -2.708126256803e-02 0.000000000000e+00 8.104375166662e+07 8.913453081090e+07  2.773869673629e-02
4.400000000000e+01 2.276463149109e+06 1.000000000000e+00 6.751216664321e+01 0.000000000000e+00 1.295521351660e-02 -1.387417310952e+08 -7.304339577062e+06 -4.155041329711e+07 -6.309533380451e+07 2.660902386261e-04 -3.084351376294e-03 -2.707274231763e-02 0.000000000000e+00 8.112915939894e+07 8.931078752871e+07  2.772629876692e-02
5.000000000000e+01 2.427985018064e+06 1.000000000000e+00 6.726334194248e+01 0.000000000000e+00 1.325616953388e-02 -1.390469678270e+08 -7.298548674120e+06 -4.153393532554e+07 -6.312432097275e+07 2.506432423448e-04 -3.082706331683e-03 -2.705781363533e-02 0.000000000000e+00 8.123507470844e+07 8.960691223864e+07  2.770341484152e-02
6.500000000000e+01 2.759369379565e+06 1.000000000000e+00 6.641202496310e+01 0.000000000000e+00 1.376922369432e-02 -1.392580261706e+08 -7.293129947050e+06 -4.149644438801e+07 -6.297795695149e+07 2.307182232636e-04 -3.079806635293e-03 -2.703801530721e-02 0.000000000000e+00 8.124414250337e+07 8.987927926187e+07  2.767311497169e-02
8.000000000000e+01 3.014422729007e+06 1.000000000000e+00 6.535760750312e+01 0.000000000000e+00 1.401433236556e-02 -1.390418318321e+08 -7.295113652797e+06 -4.146678676757e+07 -6.265783878141e+07 2.250256541354e-04 -3.078188291357e-03 -2.703561275552e-02 0.000000000000e+00 8.105548579371e+07 8.978801868408e+07  2.766738927922e-02
1.000000000000e+02 3.315102353166e+06 1.000000000000e+00 6.420536454622e+01 0.000000000000e+00 1.422067128771e-02 -1.386818835227e+08 -7.299355662291e+06 -4.143632027206e+07 -6.227130062378e+07 2.236763965875e-04 -3.076765598301e-03 -2.703702414998e-02 0.000000000000e+00 8.079650147285e+07 8.957973184727e+07  2.766762927672e-02
1.860000000000e+02 3.913583542837e+06 1.000000000000e+00 6.147268638692e+01 0.000000000000e+00 1.447412860840e-02 -1.374427446200e+08 -7.315952826293e+06 -4.137104317412e+07 -6.124043988911e+07 2.356754563765e-04 -3.074532848391e-03 -2.705360316500e-02 0.000000000000e+00 8.001807589439e+07 8.874822529310e+07  2.768911544470e-02
2.720000000000e+02 4.203904885271e+06 1.000000000000e+00 5.942458207660e+01 0.000000000000e+00 1.429379437497e-02 -1.361748277062e+08 -7.335115967611e+06 -4.134154926634e+07 -6.037161379334e+07 2.582951873317e-04 -3.074777614676e-03 -2.708702474760e-02 0.000000000000e+00 7.929599692197e+07 8.781925999642e+07  2.773324442526e-02
3.580000000000e+02 4.345270570126e+06 1.000000000000e+00 5.799349184248e+01 0.000000000000e+00 1.410354717087e-02 -1.352050652149e+08 -7.350012717093e+06 -4.132362786041e+07 -5.974008436019e+07 2.774275141005e-04 -3.075277348799e-03 -2.711407788051e-02 0.000000000000e+00 7.875625914516e+07 8.709761651962e+07  2.776948629117e-02
4.440000000000e+02 4.417399455284e+06 1.000000000000e+00 5.690549126728e+01 0.000000000000e+00 1.392451907534e-02 -1.344362139563e+08 -7.361964416079e+06 -4.131182092886e+07 -5.925100374020e+07 2.932418027357e-04 -3.075836534110e-03 -2.713660594645e-02 0.000000000000e+00 7.833301287512e+07 8.652159791717e+07  2.779966315352e-02
5.300000000000e+02 4.456363967567e+06 1.000000000000e+00 5.606970574270e+01 0.000000000000e+00 1.376892349639e-02 -1.338290134392e+08 -7.371474714663e+06 -4.130371629906e+07 -5.887060145402e+07 3.060563429563e-04 -3.076361006022e-03 -2.715494827111e-02 0.000000000000e+00 7.800111039742e+07 8.606486341435e+07  2.782423083161e-02
6.160000000000e+02 4.478879443004e+06 1.000000000000e+00 5.543354191827e+01 0.000000000000e+00 1.363973201947e-02 -1.333570271773e+08 -7.378908408932e+06 -4.129811358098e+07 -5.857827396319e+07 3.162045301824e-04 -3.076815897868e-03 -2.716952026116e-02 0.000000000000e+00 7.774447157383e+07 8.570880696719e+07  2.784374849269e-02
7.020000000000e+02 4.492689738173e+06 1.000000000000e+00 5.496615109681e+01 0.000000000000e+00 1.354053082595e-02 -1.330063579299e+08 -7.384448334854e+06 -4.129423943792e+07 -5.836240019141e+07 3.238173714743e-04 -3.077173512247e-03 -2.718048063742e-02 0.000000000000e+00 7.755433251974e+07 8.544394560156e+07  2.785842579257e-02
7.880000000000e+02 4.502308299529e+06 1.000000000000e+00 5.460065469369e+01 0.000000000000e+00 1.345082856855e-02 -1.327234302107e+08 -7.388968649746e+06 -4.129190490654e+07 -5.819118106999e+07 3.301242477856e-04 -3.077515829475e-03 -2.718972944964e-02 0.000000000000e+00 7.740217206241e+07 8.522894655723e+07  2.787076729457e-02
8.740000000000e+02 4.510694377837e+06 1.000000000000e+00 5.401038251121e+01 0.000000000000e+00 1.332459269271e-02 -1.322806593589e+08 -7.395961473215e+06 -4.128700727005e+07 -5.791857900038e+07 3.397346438167e-04 -3.077967016554e-03 -2.720356477080e-02 0.000000000000e+00 7.716208187645e+07 8.489515407435e+07  2.788929888183e-02
9.370000000000e+02 4.516068229386e+06 1.000000000000e+00 5.360241834825e+01 0.000000000000e+00 1.322063370788e-02 -1.319560602428e+08 -7.401143297979e+06 -4.128438418610e+07 -5.772480420113e+07 3.471177279480e-04 -3.078363135131e-03 -2.721406554424e-02 0.000000000000e+00 7.698841621002e+07 8.464803942043e+07  2.790342806069e-02
1.000000000000e+03 4.520258254381e+06 1.000000000000e+00 5.327981538065e+01 0.000000000000e+00 1.313373177873e-02 -1.316893823133e+08 -7.405401993965e+06 -4.128237472522e+07 -5.756857686657e+07 3.533480776010e-04 -3.078697846116e-03 -2.722263122946e-02 0.000000000000e+00 7.684677796837e+07 8.444406750464e+07  2.791506245048e-02
1.100000000000e+03 4.524403564311e+06 1.000000000000e+00 5.295547262779e+01 0.000000000000e+00 1.304287139295e-02 -1.314148060088e+08 -7.409790739459e+06 -4.128045716890e+07 -5.740958964267e+07 3.598662665003e-04 -3.079052571827e-03 -2.723145394805e-02 0.000000000000e+00 7.670161760680e+07 8.423346068330e+07  2.792710088316e-02
1.200000000000e+03 4.527664936884e+06 1.000000000000e+00 5.267668556676e+01 0.000000000000e+00 1.296733365880e-02 -1.311837354610e+08 -7.413481069519e+06 -4.127873644567e+07 -5.727440133832e+07 3.652745776041e-04 -3.079343976528e-03 -2.723888015325e-02 0.000000000000e+00 7.657895774832e+07 8.405687962078e+07  2.793719323661e-02
1.300000000000e+03 4.530570310175e+06 1.000000000000e+00 5.240899671780e+01 0.000000000000e+00 1.289542529129e-02 -1.309633198603e+08 -7.417001466318e+06 -4.127707805163e+07 -5.714503242078e+07 3.704104713068e-04 -3.079620978958e-03 -2.724597461051e-02 0.000000000000e+00 7.646181011091e+07 8.388869104546e+07  2.794681961892e-02
1.400000000000e+03 4.533309823868e+06 1.000000000000e+00 5.213500147556e+01 0.000000000000e+00 1.282113103371e-02 -1.307369270585e+08 -7.420618369195e+06 -4.127540540384e+07 -5.701238680254e+07 3.756984858405e-04 -3.079907504630e-03 -2.725327054574e-02 0.000000000000e+00 7.634157308830e+07 8.371594154685e+07  2.795672384206e-02
1.500000000000e+03 4.535949710671e+06 1.000000000000e+00 5.184463135536e+01 0.000000000000e+00 1.274093988969e-02 -1.304949528090e+08 -7.424486440376e+06 -4.127368340469e+07 -5.687121064385e+07 3.813836108321e-04 -3.080218125871e-03 -2.726108210243e-02 0.000000000000e+00 7.621328228584e+07 8.353116536331e+07  2.796734188103e-02
1.600000000000e+03 4.538510754033e+06 1.000000000000e+00 5.153174535744e+01 0.000000000000e+00 1.265270155688e-02 -1.302315218334e+08 -7.428701238288e+06 -4.127187263776e+07 -5.671828843584e+07 3.876158670999e-04 -3.080560513041e-03 -2.726958984649e-02 0.000000000000e+00 7.607389430234e+07 8.332982672223e+07  2.797892888217e-02
1.700000000000e+03 4.540998041300e+06 1.000000000000e+00 5.119255284710e+01 0.000000000000e+00 1.255508336717e-02 -1.299430369713e+08 -7.433320467074e+06 -4.126997269836e+07 -5.655165195734e+07 3.944868384587e-04 -3.080941041711e-03 -2.727891995402e-02 0.000000000000e+00 7.592155387566e+07 8.310915401384e+07  2.799165700204e-02
1.800000000000e+03 4.543411448242e+06 1.000000000000e+00 5.082476598952e+01 0.000000000000e+00 1.244728120437e-02 -1.296273084786e+08 -7.438378658970e+06 -4.126798161923e+07 -5.637010711936e+07 4.020525291192e-04 -3.081363389152e-03 -2.728914775346e-02 0.000000000000e+00 7.575513240572e+07 8.286748231692e+07  2.800562984876e-02
1.900000000000e+03 4.545750738841e+06 1.000000000000e+00 5.042709828818e+01 0.000000000000e+00 1.232884043859e-02 -1.292831205791e+08 -7.443896740735e+06 -4.126588107715e+07 -5.617298155230e+07 4.103437221157e-04 -3.081828515028e-03 -2.730030445452e-02 0.000000000000e+00 7.557399440284e+07 8.260392882529e+07  2.802089425434e-02