 TITLE = "Time curves in points"
 VARIABLES = "TIME"  "PRESSURE1"  "SATURATION1"  "TEMPERATURE1"  "DISPLACEMENT_X1"  "DISPLACEMENT_Y1"  "STRESS_XX"  "STRESS_XY"  "STRESS_YY"  "STRESS_ZZ"  "STRAIN_XX"  "STRAIN_XY"  "STRAIN_YY"  "STRAIN_PLS"  p_(1st_Invariant)  q_(2nd_Invariant)   Effective_Strain
 ZONE T="POINT=POINT15"
0.000000000000e+00 1.000000000000e+05 1.000000000000e+00 2.500000000000e+01 0.000000000000e+00 0.000000000000e+00 -3.444049899891e+07 -5.858766693045e+04 -1.446208944789e+07 -1.168309508854e+07 0.000000000000e+00 0.000000000000e+00 0.000000000000e+00 0.000000000000e+00 2.019522784511e+07 2.150325191297e+07  0.000000000000e+00
1.000000000000e-03 1.960039119575e+05 1.000000000000e+00 2.500000003920e+01 0.000000000000e+00 -4.687204199715e-04 -3.837812061416e+07 1.385209093305e+05 -9.980026389637e+06 -1.151976266401e+07 -1.523211500491e-04 1.464235137939e-05 1.604099949670e-04 0.000000000000e+00 1.995930322260e+07 2.766142678363e+07  2.720480279511e-04
2.000000000000e-03 2.110245540499e+05 1.000000000000e+00 2.499999992061e+01 0.000000000000e+00 -4.688310165955e-04 -3.837128043105e+07 1.384319395944e+05 -9.977781568512e+06 -1.151703713442e+07 -1.521683200611e-04 1.463574219899e-05 1.603921400812e-04 0.000000000000e+00 1.995536637799e+07 2.765705559889e+07  2.719008157147e-04
3.000000000000e-03 2.213821943291e+05 1.000000000000e+00 2.499999996853e+01 0.000000000000e+00 -4.689005468905e-04 -3.836587238509e+07 1.383330341407e+05 -9.977392850324e+06 -1.151529811006e+07 -1.520320421160e-04 1.462839493672e-05 1.603419858519e-04 0.000000000000e+00 1.995285444849e+07 2.765265880483e+07  2.717395510745e-04
4.000000000000e-03 2.285004439701e+05 1.000000000000e+00 2.500000009622e+01 0.000000000000e+00 -4.690548385401e-04 -3.836144998866e+07 1.382199275613e+05 -9.978829210862e+06 -1.151440227453e+07 -1.519010555683e-04 1.461999273367e-05 1.602553614265e-04 0.000000000000e+00 1.995156049135e+07 2.764787285041e+07  2.715509209568e-04
1.000000000000e-02 2.382394329818e+05 1.000000000000e+00 2.500409753928e+01 0.000000000000e+00 -4.681237487964e-04 -3.833117745681e+07 1.366630835863e+05 -1.002016419393e+07 -1.151901305900e+07 -1.506053895334e-04 1.450434146696e-05 1.588913197643e-04 0.000000000000e+00 1.995678490325e+07 2.759315350206e+07  2.692386519869e-04
2.000000000000e-02 2.336637875032e+05 1.000000000000e+00 2.504938856573e+01 0.000000000000e+00 -4.588051444959e-04 -3.826674319867e+07 1.326576307685e+05 -1.012841957052e+07 -1.154695099463e+07 -1.471744223360e-04 1.420679354335e-05 1.559081005287e-04 0.000000000000e+00 1.998070458794e+07 2.745751601759e+07  2.636642372063e-04
3.000000000000e-02 2.223304955464e+05 1.000000000000e+00 2.514647843692e+01 0.000000000000e+00 -4.443518431492e-04 -3.820694863253e+07 1.283152087866e+05 -1.025497351103e+07 -1.159911675742e+07 -1.430158958335e-04 1.388421362469e-05 1.531451110703e-04 0.000000000000e+00 2.002034630033e+07 2.730563257014e+07  2.576576622613e-04
4.000000000000e-02 2.083173594476e+05 1.000000000000e+00 2.529417686755e+01 0.000000000000e+00 -4.259426583863e-04 -3.816126089624e+07 1.241940900058e+05 -1.038676469853e+07 -1.167427711013e+07 -1.385272525274e-04 1.357807337241e-05 1.510416800641e-04 0.000000000000e+00 2.007410090163e+07 2.715449486148e+07  2.519521184576e-04
5.000000000000e-02 1.936145956242e+05 1.000000000000e+00 2.548357292889e+01 0.000000000000e+00 -4.061027137552e-04 -3.813374900466e+07 1.205380006560e+05 -1.051910950813e+07 -1.176940258707e+07 -1.339721502681e-04 1.330647816357e-05 1.496592477080e-04 0.000000000000e+00 2.014075369996e+07 2.701201108572e+07  2.468355439930e-04
6.000000000000e-02 1.787721684024e+05 1.000000000000e+00 2.570371299838e+01 0.000000000000e+00 -3.836804352064e-04 -3.812121361733e+07 1.173434224124e+05 -1.064486300620e+07 -1.187776086676e+07 -1.294818140648e-04 1.306916663690e-05 1.490131395967e-04 0.000000000000e+00 2.021461249676e+07 2.688188338998e+07  2.424404193410e-04
7.000000000000e-02 1.646665401313e+05 1.000000000000e+00 2.594453583798e+01 0.000000000000e+00 -3.618127511487e-04 -3.812381950836e+07 1.146202284504e+05 -1.076663842291e+07 -1.199679213032e+07 -1.251574430847e-04 1.286687222829e-05 1.489112139085e-04 0.000000000000e+00 2.029575002053e+07 2.676405258438e+07  2.386900734623e-04
8.000000000000e-02 1.518833549588e+05 1.000000000000e+00 2.619789506195e+01 0.000000000000e+00 -3.396402716437e-04 -3.813734903988e+07 1.122726009757e+05 -1.088207807769e+07 -1.212174177077e+07 -1.210189818961e-04 1.269247704446e-05 1.492644419475e-04 0.000000000000e+00 2.038038962944e+07 2.665777572957e+07  2.355262094278e-04
9.000000000000e-02 1.413617796757e+05 1.000000000000e+00 2.645763074329e+01 0.000000000000e+00 -3.189272744273e-04 -3.816069334003e+07 1.102617376363e+05 -1.099379107257e+07 -1.225093414387e+07 -1.170874820435e-04 1.254309862496e-05 1.499136759958e-04 0.000000000000e+00 2.046847285215e+07 2.656133990425e+07  2.328273856689e-04
1.000000000000e-01 1.341219892824e+05 1.000000000000e+00 2.671927995954e+01 0.000000000000e+00 -2.997224695706e-04 -3.819170556575e+07 1.085336873429e+05 -1.110166885196e+07 -1.238213746397e+07 -1.133660985379e-04 1.241472917459e-05 1.507800532221e-04 0.000000000000e+00 2.055850396056e+07 2.647370555842e+07  2.305259630061e-04
2.000000000000e-01 1.516672234873e+05 1.000000000000e+00 2.886052169521e+01 0.000000000000e+00 -1.006762377627e-04 -3.856063735404e+07 9.960096073565e+04 -1.175697898010e+07 -1.342840742759e+07 -8.820782345437e-05 1.175115519805e-05 1.653014185402e-04 0.000000000000e+00 2.124867458724e+07 2.600882810188e+07  2.238310219312e-04
3.000000000000e-01 1.787116902625e+05 1.000000000000e+00 3.055833076284e+01 0.000000000000e+00 9.374050313477e-05 -3.887855391342e+07 9.330687479405e+04 -1.219641029784e+07 -1.424413551467e+07 -6.971768099713e-05 1.128359452811e-05 1.792781556867e-04 0.000000000000e+00 2.177303324198e+07 2.571999974114e+07  2.233428484066e-04
4.000000000000e-01 2.063329078862e+05 1.000000000000e+00 3.192496611164e+01 0.000000000000e+00 2.683374439122e-04 -3.915596451692e+07 8.841547917727e+04 -1.252832948503e+07 -1.490187482317e+07 -5.559118623975e-05 1.092023371086e-05 1.913800459068e-04 0.000000000000e+00 2.219538960837e+07 2.552422805412e+07  2.251965813379e-04
5.000000000000e-01 2.326134764735e+05 1.000000000000e+00 3.305143139776e+01 0.000000000000e+00 4.296910526653e-04 -3.939510185338e+07 8.420775621221e+04 -1.278980495703e+07 -1.544416901094e+07 -4.433107461973e-05 1.060766000488e-05 2.018104553497e-04 0.000000000000e+00 2.254302527378e+07 2.538284067213e+07  2.279840910521e-04
6.000000000000e-01 2.571144544015e+05 1.000000000000e+00 3.400119950400e+01 0.000000000000e+00 5.812338025580e-04 -3.960376058347e+07 8.039600407712e+04 -1.300250184725e+07 -1.590154251802e+07 -3.509309718848e-05 1.032450127485e-05 2.108984439764e-04 0.000000000000e+00 2.283593498291e+07 2.527711737411e+07  2.311504806680e-04
7.000000000000e-01 2.799190173245e+05 1.000000000000e+00 3.481780655100e+01 0.000000000000e+00 7.249232546060e-04 -3.978949945530e+07 7.688212227824e+04 -1.317921944479e+07 -1.629506701508e+07 -2.737534539462e-05 1.006347005550e-05 2.189512716724e-04 0.000000000000e+00 2.308792863839e+07 2.519761227946e+07  2.344925497276e-04
8.000000000000e-01 3.012899912093e+05 1.000000000000e+00 3.553150739397e+01 0.000000000000e+00 8.618803574999e-04 -3.995970442453e+07 7.369769800960e+04 -1.332636891078e+07 -1.663932017629e+07 -2.091069826373e-05 9.826912824118e-06 2.262722660664e-04 0.000000000000e+00 2.330846450387e+07 2.514143110749e+07  2.380285937043e-04
9.000000000000e-01 3.212409317564e+05 1.000000000000e+00 3.616383017439e+01 0.000000000000e+00 9.931518184552e-04 -4.011628787190e+07 7.071762878056e+04 -1.345227565523e+07 -1.694482003252e+07 -1.537951736320e-05 9.605536252818e-06 2.329428673614e-04 0.000000000000e+00 2.350446118655e+07 2.510093963827e+07  2.415745368664e-04
1.000000000000e+00 3.399191800746e+05 1.000000000000e+00 3.673050347112e+01 0.000000000000e+00 1.119481787345e-03 -4.026204673101e+07 6.786980916378e+04 -1.356213962663e+07 -1.721941613546e+07 -1.059413402113e-05 9.393983938428e-06 2.390614893896e-04 0.000000000000e+00 2.368120083103e+07 2.507240687961e+07  2.450714623236e-04
2.000000000000e+00 4.670919818749e+05 1.000000000000e+00 4.002140256720e+01 0.000000000000e+00 2.119203076909e-03 -4.130396547203e+07 4.501520676259e+04 -1.413407973229e+07 -1.885456229448e+07 1.144002721908e-05 7.696213474340e-06 2.785519999432e-04 0.000000000000e+00 2.476420249960e+07 2.514431852300e+07  2.733370511646e-04
3.000000000000e+00 5.669108460614e+05 1.000000000000e+00 4.227694470579e+01 0.000000000000e+00 2.954707226736e-03 -4.212754537929e+07 2.542398294768e+04 -1.449681241200e+07 -2.000018030783e+07 2.340144258831e-05 6.240865419518e-06 3.076305980499e-04 0.000000000000e+00 2.554151269971e+07 2.533148856449e+07  2.968199080194e-04
4.000000000000e+00 6.510788731973e+05 1.000000000000e+00 4.400442864523e+01 0.000000000000e+00 3.674922465934e-03 -4.281503796556e+07 8.411940783144e+03 -1.475924826655e+07 -2.089044695757e+07 3.093305065968e-05 4.977113715867e-06 3.309500275853e-04 0.000000000000e+00 2.615491106323e+07 2.554806302302e+07  3.167361605430e-04
5.000000000000e+00 7.254294308353e+05 1.000000000000e+00 4.542923465511e+01 0.000000000000e+00 4.309558915784e-03 -4.340876726016e+07 -6.494868018135e+03 -1.496727020422e+07 -2.163041701508e+07 3.636485042516e-05 3.869750776344e-06 3.507081006083e-04 0.000000000000e+00 2.666881815982e+07 2.576444325717e+07  3.340809055759e-04
6.000000000000e+00 7.930202778770e+05 1.000000000000e+00 4.667220013284e+01 0.000000000000e+00 4.880075328012e-03 -4.393281317552e+07 -1.989493883476e+04 -1.514885724276e+07 -2.227784742518e+07 4.094770308688e-05 2.874316944252e-06 3.680108544086e-04 0.000000000000e+00 2.711983928115e+07 2.596419204077e+07  3.493770015975e-04
7.000000000000e+00 8.558821062167e+05 1.000000000000e+00 4.775201887746e+01 0.000000000000e+00 5.394921200570e-03 -4.439898606064e+07 -3.178807426371e+04 -1.529997296883e+07 -2.284175204811e+07 4.457773906266e-05 1.990826883816e-06 3.833430134350e-04 0.000000000000e+00 2.751357035919e+07 2.615675243373e+07  3.631285806984e-04
8.000000000000e+00 9.146637251304e+05 1.000000000000e+00 4.875007284339e+01 0.000000000000e+00 5.868965160338e-03 -4.482587454207e+07 -4.266736561961e+04 -1.544165325282e+07 -2.336225510910e+07 4.805485201778e-05 1.182650954520e-06 3.974135737236e-04 0.000000000000e+00 2.787659430133e+07 2.633311866005e+07  3.757038233728e-04
9.000000000000e+00 9.703584334624e+05 1.000000000000e+00 4.966476206007e+01 0.000000000000e+00 6.307420786024e-03 -4.521758964340e+07 -5.260020002971e+04 -1.556956175832e+07 -2.383887322131e+07 5.120839242151e-05 4.447832554841e-07 4.103656448299e-04 0.000000000000e+00 2.820867487434e+07 2.649955835565e+07  3.873095537560e-04
1.000000000000e+01 1.023462094755e+06 1.000000000000e+00 5.050281160951e+01 0.000000000000e+00 6.714799591356e-03 -4.557683156542e+07 -6.177381400250e+04 -1.568553350056e+07 -2.427533970574e+07 5.407673331133e-05 -2.366852110661e-07 4.222697352542e-04 0.000000000000e+00 2.851256825724e+07 2.665568346636e+07  3.979965107864e-04
1.100000000000e+01 1.074269161823e+06 1.000000000000e+00 5.128424826265e+01 0.000000000000e+00 7.095939225823e-03 -4.591196686969e+07 -7.024692995944e+04 -1.579176040898e+07 -2.468178541006e+07 5.672540531321e-05 -8.661166821533e-07 4.334207191019e-04 0.000000000000e+00 2.879517089625e+07 2.680493979056e+07  4.080288909708e-04
1.200000000000e+01 1.123160444527e+06 1.000000000000e+00 5.200818670745e+01 0.000000000000e+00 7.453178814639e-03 -4.622441385210e+07 -7.805977635326e+04 -1.588665376175e+07 -2.505789831608e+07 5.909013961879e-05 -1.446499557123e-06 4.438660167940e-04 0.000000000000e+00 2.905632197665e+07 2.694948379731e+07  4.174767749747e-04
1.300000000000e+01 1.170388789441e+06 1.000000000000e+00 5.267773073040e+01 0.000000000000e+00 7.788738103705e-03 -4.651506248741e+07 -8.534969766172e+04 -1.597217739223e+07 -2.540562753910e+07 6.121027573375e-05 -1.988036568609e-06 4.536050816598e-04 0.000000000000e+00 2.929762247291e+07 2.708791024491e+07  4.263224515652e-04
1.400000000000e+01 1.216665028040e+06 1.000000000000e+00 5.329685741496e+01 0.000000000000e+00 8.104586906273e-03 -4.678570890094e+07 -9.215285747052e+04 -1.604813304171e+07 -2.572684489006e+07 6.308862483811e-05 -2.493414154405e-06 4.627148020004e-04 0.000000000000e+00 2.952022894423e+07 2.722134033317e+07  4.346398202721e-04
1.500000000000e+01 1.261534186761e+06 1.000000000000e+00 5.386935356832e+01 0.000000000000e+00 8.401925418181e-03 -4.703828390136e+07 -9.848080304771e+04 -1.611511843311e+07 -2.602363396663e+07 6.473086195251e-05 -2.963490111568e-06 4.712503674496e-04 0.000000000000e+00 2.972567876703e+07 2.735045287875e+07  4.424803923916e-04
1.600000000000e+01 1.305136940888e+06 1.000000000000e+00 5.439866554527e+01 0.000000000000e+00 8.682216081331e-03 -4.727327524438e+07 -1.044195039135e+05 -1.617483076846e+07 -2.629785578927e+07 6.618799405237e-05 -3.404650747312e-06 4.792178626918e-04 0.000000000000e+00 2.991532060071e+07 2.747382869486e+07  4.498298749239e-04
1.700000000000e+01 1.347603341711e+06 1.000000000000e+00 5.488782461493e+01 0.000000000000e+00 8.946742880897e-03 -4.749095677289e+07 -1.100399071474e+05 -1.622871580878e+07 -2.655108665341e+07 6.750839794727e-05 -3.822166416119e-06 4.866221361482e-04 0.000000000000e+00 3.009025307836e+07 2.759012380600e+07  4.566740995876e-04
1.800000000000e+01 1.389061677261e+06 1.000000000000e+00 5.533949366761e+01 0.000000000000e+00 9.196557350098e-03 -4.769225413333e+07 -1.153774751387e+05 -1.627739416054e+07 -2.678472201039e+07 6.870952353318e-05 -4.218671466898e-06 4.934919677705e-04 0.000000000000e+00 3.025145676809e+07 2.769929725549e+07  4.630346795565e-04
1.900000000000e+01 1.429599824063e+06 1.000000000000e+00 5.575602508805e+01 0.000000000000e+00 9.432556576060e-03 -4.787812256923e+07 -1.204507531338e+05 -1.632117354426e+07 -2.699996368165e+07 6.980052941787e-05 -4.595543546531e-06 4.998605670220e-04 0.000000000000e+00 3.039975326505e+07 2.780163807586e+07  4.689408547128e-04
2.000000000000e+01 1.469301231902e+06 1.000000000000e+00 5.613949068734e+01 0.000000000000e+00 9.655268088314e-03 -4.805128669765e+07 -1.251739206279e+05 -1.635798735828e+07 -2.719773394474e+07 7.071447156286e-05 -4.946407417524e-06 5.058389494163e-04 0.000000000000e+00 3.053566933356e+07 2.790098566856e+07  4.745280245361e-04
2.100000000000e+01 1.508089157920e+06 1.000000000000e+00 5.651418949506e+01 0.000000000000e+00 9.868462107829e-03 -4.821643137181e+07 -1.297282564370e+05 -1.639585336638e+07 -2.739025724500e+07 7.173139196069e-05 -5.284729506199e-06 5.115833631248e-04 0.000000000000e+00 3.066751399440e+07 2.799336177140e+07  4.798438583286e-04
2.200000000000e+01 1.546110329475e+06 1.000000000000e+00 5.687065724353e+01 0.000000000000e+00 1.007224005263e-02 -4.837228987194e+07 -1.340994628543e+05 -1.643169311060e+07 -2.757299185262e+07 7.272964738202e-05 -5.609447697200e-06 5.170394580512e-04 0.000000000000e+00 3.079232494505e+07 2.808067799414e+07  4.848811225795e-04
2.300000000000e+01 1.583435762705e+06 1.000000000000e+00 5.720611854938e+01 0.000000000000e+00 1.026659046032e-02 -4.852040585271e+07 -1.381993238125e+05 -1.646253894670e+07 -2.774455119761e+07 7.360040090992e-05 -5.914008796953e-06 5.222659598100e-04 0.000000000000e+00 3.090916533234e+07 2.816683654550e+07  4.897394146553e-04
2.400000000000e+01 1.620115716878e+06 1.000000000000e+00 5.752023018276e+01 0.000000000000e+00 1.045199011526e-02 -4.865975664136e+07 -1.421035882420e+05 -1.648976411757e+07 -2.790492248822e+07 7.438116241140e-05 -6.204039868855e-06 5.272113871144e-04 0.000000000000e+00 3.101814774905e+07 2.824976602479e+07  4.943533943919e-04
2.500000000000e+01 1.656198266050e+06 1.000000000000e+00 5.781337200475e+01 0.000000000000e+00 1.062877695319e-02 -4.879038266054e+07 -1.458247085146e+05 -1.651353340709e+07 -2.805430081536e+07 7.507767670685e-05 -6.480465946250e-06 5.318768656546e-04 0.000000000000e+00 3.111940562766e+07 2.832928687300e+07  4.987219342554e-04
2.600000000000e+01 1.691721144381e+06 1.000000000000e+00 5.808615552720e+01 0.000000000000e+00 1.079729768279e-02 -4.891221828296e+07 -1.493820457712e+05 -1.653422544528e+07 -2.819299426665e+07 7.570382463637e-05 -6.744725285315e-06 5.362597752840e-04 0.000000000000e+00 3.121314599830e+07 2.840494186263e+07  5.028371243475e-04
2.700000000000e+01 1.726712668850e+06 1.000000000000e+00 5.833925679608e+01 0.000000000000e+00 1.095787005849e-02 -4.902544317722e+07 -1.527891086937e+05 -1.655209427244e+07 -2.832136958979e+07 7.626655485212e-05 -6.997821388130e-06 5.403643022778e-04 0.000000000000e+00 3.129963567982e+07 2.847659530888e+07  5.067004552770e-04
2.800000000000e+01 1.761211867394e+06 1.000000000000e+00 5.857335187548e+01 0.000000000000e+00 1.111080656372e-02 -4.913010171095e+07 -1.560656583617e+05 -1.656755618764e+07 -2.843980158581e+07 7.677814059454e-05 -7.241222220608e-06 5.441889052795e-04 0.000000000000e+00 3.137915316147e+07 2.854386308787e+07  5.103057329882e-04
2.900000000000e+01 1.795243628681e+06 1.000000000000e+00 5.878909381144e+01 0.000000000000e+00 1.125636847374e-02 -4.922643283663e+07 -1.592140664685e+05 -1.658065453745e+07 -2.854860347260e+07 7.724134029255e-05 -7.475103965680e-06 5.477436080816e-04 0.000000000000e+00 3.145189694889e+07 2.860684677132e+07  5.136618206149e-04
3.000000000000e+01 1.828818962605e+06 1.000000000000e+00 5.898710362955e+01 0.000000000000e+00 1.139482748233e-02 -4.931466034684e+07 -1.622478793654e+05 -1.659164153737e+07 -2.864813537050e+07 7.766121754974e-05 -7.700472923740e-06 5.510324185779e-04 0.000000000000e+00 3.151814575157e+07 2.866546881176e+07  5.167707754398e-04
3.100000000000e+01 1.861854553142e+06 1.000000000000e+00 5.918573192168e+01 0.000000000000e+00 1.152869573441e-02 -4.939895073971e+07 -1.652452026278e+05 -1.660544607177e+07 -2.874747679242e+07 7.822025577134e-05 -7.923131223235e-06 5.542095029714e-04 0.000000000000e+00 3.158395786797e+07 2.871837452299e+07  5.197157882425e-04
3.200000000000e+01 1.894425443470e+06 1.000000000000e+00 5.937673972959e+01 0.000000000000e+00 1.165776587436e-02 -4.947815996241e+07 -1.681855094814e+05 -1.661947361481e+07 -2.884268143207e+07 7.881437125813e-05 -8.141554018074e-06 5.572246522742e-04 0.000000000000e+00 3.164677166976e+07 2.876710595631e+07  5.224869015639e-04
3.300000000000e+01 1.926559533586e+06 1.000000000000e+00 5.955726533238e+01 0.000000000000e+00 1.178200813937e-02 -4.955172949979e+07 -1.710684375229e+05 -1.663290296228e+07 -2.893234343340e+07 7.941209134768e-05 -8.355714386866e-06 5.600561508462e-04 0.000000000000e+00 3.170565863182e+07 2.881197706446e+07  5.250746575781e-04
3.400000000000e+01 1.958283878873e+06 1.000000000000e+00 5.972644997503e+01 0.000000000000e+00 1.190141527959e-02 -4.961962122522e+07 -1.738904807956e+05 -1.664547751750e+07 -2.901607568352e+07 8.000045369367e-05 -8.565351887126e-06 5.626991509427e-04 0.000000000000e+00 3.176039147541e+07 2.885319192505e+07  5.274792085506e-04
3.500000000000e+01 1.989631548302e+06 1.000000000000e+00 5.988409077252e+01 0.000000000000e+00 1.201616317007e-02 -4.968098003207e+07 -1.766939134081e+05 -1.665805285819e+07 -2.909380782988e+07 8.060860630385e-05 -8.773606881195e-06 5.651192608675e-04 0.000000000000e+00 3.181094690671e+07 2.888927746210e+07  5.296555285587e-04
3.600000000000e+01 2.020638543271e+06 1.000000000000e+00 6.003022837231e+01 0.000000000000e+00 1.212645383798e-02 -4.973484754219e+07 -1.795344701501e+05 -1.667189678253e+07 -2.916564710875e+07 8.127612914301e-05 -8.984619667745e-06 5.672733740356e-04 0.000000000000e+00 3.185746381116e+07 2.891831523772e+07  5.315461186223e-04
3.700000000000e+01 2.051367531279e+06 1.000000000000e+00 6.016500878829e+01 0.000000000000e+00 1.223283916698e-02 -4.977778393466e+07 -1.825874461949e+05 -1.669098680258e+07 -2.923180599289e+07 8.213867883366e-05 -9.211412173933e-06 5.690216461305e-04 0.000000000000e+00 3.190019224338e+07 2.893393793679e+07  5.329617813947e-04
3.800000000000e+01 2.083377290620e+06 1.000000000000e+00 6.028883093635e+01 0.000000000000e+00 1.235127461546e-02 -4.969387481483e+07 -1.917081585398e+05 -1.684878142167e+07 -2.929768669196e+07 8.770230067886e-05 -9.888950805267e-06 5.656077005299e-04 0.000000000000e+00 3.194678097615e+07 2.872281675329e+07  5.275339248513e-04
3.900000000000e+01 2.113075158540e+06 1.000000000000e+00 6.040140092322e+01 0.000000000000e+00 1.244258227388e-02 -4.977086834257e+07 -1.923817234850e+05 -1.681427300704e+07 -2.935021041997e+07 8.679342240302e-05 -9.938987058340e-06 5.688403229705e-04 0.000000000000e+00 3.197845058986e+07 2.881416524287e+07  5.310717118896e-04
4.000000000000e+01 2.142460697470e+06 1.000000000000e+00 6.050307925868e+01 0.000000000000e+00 1.252958488402e-02 -4.984225173658e+07 -1.930177854613e+05 -1.677919412123e+07 -2.939706830128e+07 8.588247478838e-05 -9.986237376574e-06 5.718836886068e-04 0.000000000000e+00 3.200617138636e+07 2.890160539309e+07  5.344259921752e-04
4.200000000000e+01 2.199743116275e+06 1.000000000000e+00 6.070378973034e+01 0.000000000000e+00 1.269306955400e-02 -4.997443179532e+07 -1.942685998185e+05 -1.671580842689e+07 -2.948858901756e+07 8.437227063958e-05 -1.007915501454e-05 5.776373552868e-04 0.000000000000e+00 3.205960974659e+07 2.906179750488e+07  5.406956510841e-04
4.400000000000e+01 2.255508367281e+06 1.000000000000e+00 6.088174872993e+01 0.000000000000e+00 1.284521156529e-02 -5.009322785733e+07 -1.954217693710e+05 -1.665238895463e+07 -2.956810855819e+07 8.291342841727e-05 -1.016481903844e-05 5.829465186226e-04 0.000000000000e+00 3.210457512338e+07 2.921142909586e+07  5.465136378733e-04
5.000000000000e+01 2.407029548280e+06 1.000000000000e+00 6.110435747392e+01 0.000000000000e+00 1.315827071286e-02 -5.029972039344e+07 -1.975885266273e+05 -1.646758078728e+07 -2.965437125274e+07 7.844774858789e-05 -1.032577814891e-05 5.930148649219e-04 0.000000000000e+00 3.214055747782e+07 2.953785538599e+07  5.582292211338e-04
6.500000000000e+01 2.738412900207e+06 1.000000000000e+00 6.116284735512e+01 0.000000000000e+00 1.368166587547e-02 -5.045377327503e+07 -2.013972946366e+05 -1.600533584538e+07 -2.958598938366e+07 7.018588641980e-05 -1.060871520103e-05 6.076440647694e-04 0.000000000000e+00 3.201503283469e+07 3.005691901735e+07  5.760615985318e-04
8.000000000000e+01 2.993465893724e+06 1.000000000000e+00 6.080745373947e+01 0.000000000000e+00 1.391856201412e-02 -5.036732473663e+07 -2.029162764007e+05 -1.563323020940e+07 -2.932680349508e+07 6.376992769890e-05 -1.072155384636e-05 6.118382268156e-04 0.000000000000e+00 3.177578614703e+07 3.030612030733e+07  5.828727092039e-04
1.000000000000e+02 3.294145306883e+06 1.000000000000e+00 6.032014554382e+01 0.000000000000e+00 1.411180845207e-02 -5.018599549969e+07 -2.041959852291e+05 -1.523744897799e+07 -2.898576325597e+07 5.783780476131e-05 -1.081661793076e-05 6.138714636726e-04 0.000000000000e+00 3.146973591122e+07 3.049686108976e+07  5.873920372094e-04
1.860000000000e+02 3.892626698402e+06 1.000000000000e+00 5.884467712075e+01 0.000000000000e+00 1.432075554391e-02 -4.948711407428e+07 -2.058717409408e+05 -1.434903828195e+07 -2.799817997365e+07 4.711459293304e-05 -1.094110264077e-05 6.101879104678e-04 0.000000000000e+00 3.061144410996e+07 3.068396997727e+07  5.883531584983e-04
2.720000000000e+02 4.182948269365e+06 1.000000000000e+00 5.740673231937e+01 0.000000000000e+00 1.408816051172e-02 -4.881778658060e+07 -2.034588945653e+05 -1.395290077705e+07 -2.717769322525e+07 4.150010632923e-05 -1.076186262430e-05 5.944263671378e-04 0.000000000000e+00 2.998279352763e+07 3.048768120858e+07  5.751031736953e-04
3.580000000000e+02 4.324314095300e+06 1.000000000000e+00 5.632833078622e+01 0.000000000000e+00 1.385785754569e-02 -4.829979877061e+07 -2.012609166910e+05 -1.370677183961e+07 -2.657242699248e+07 3.825833634043e-05 -1.059858426792e-05 5.810869818827e-04 0.000000000000e+00 2.952633253423e+07 3.028633615086e+07  5.632329443335e-04
4.440000000000e+02 4.396443065099e+06 1.000000000000e+00 5.547764574920e+01 0.000000000000e+00 1.364661759480e-02 -4.789250932372e+07 -1.992473409265e+05 -1.354481929452e+07 -2.610486283305e+07 3.601956130328e-05 -1.044900435399e-05 5.697356933499e-04 0.000000000000e+00 2.918073048376e+07 3.010363965246e+07  5.529033228477e-04
5.300000000000e+02 4.435407630124e+06 1.000000000000e+00 5.480791264143e+01 0.000000000000e+00 1.346535111659e-02 -4.757256298721e+07 -1.975205610073e+05 -1.343368234998e+07 -2.574179489770e+07 3.441790191753e-05 -1.032072927428e-05 5.603782565483e-04 0.000000000000e+00 2.891601341163e+07 2.994803271719e+07  5.442801584406e-04
6.160000000000e+02 4.457923140021e+06 1.000000000000e+00 5.428848763810e+01 0.000000000000e+00 1.331606644992e-02 -4.732489688742e+07 -1.960980986765e+05 -1.335704969920e+07 -2.546317325402e+07 3.326812457298e-05 -1.021506064399e-05 5.528758082409e-04 0.000000000000e+00 2.871503994688e+07 2.982061834651e+07  5.373065499141e-04
7.020000000000e+02 4.471733458232e+06 1.000000000000e+00 5.390302498815e+01 0.000000000000e+00 1.320188003659e-02 -4.714136630510e+07 -1.950085885161e+05 -1.330406439895e+07 -2.525763434261e+07 3.245067234977e-05 -1.013412560351e-05 5.472095312550e-04 0.000000000000e+00 2.856768834889e+07 2.972353217057e+07  5.320170124461e-04
7.880000000000e+02 4.481352036468e+06 1.000000000000e+00 5.359223658808e+01 0.000000000000e+00 1.309986130076e-02 -4.699553888159e+07 -1.940232874583e+05 -1.327311849059e+07 -2.509604515410e+07 3.186523536406e-05 -1.006093181064e-05 5.423570665636e-04 0.000000000000e+00 2.845490084209e+07 2.963778776878e+07  5.274352209945e-04
8.740000000000e+02 4.489738131595e+06 1.000000000000e+00 5.310543016655e+01 0.000000000000e+00 1.295471209695e-02 -4.676353378124e+07 -1.926511556717e+05 -1.320586743972e+07 -2.483629726147e+07 3.083478879367e-05 -9.959002020775e-06 5.352071838696e-04 0.000000000000e+00 2.826856616081e+07 2.951618417350e+07  5.207610378608e-04
9.370000000000e+02 4.495111994429e+06 1.000000000000e+00 5.275164375976e+01 0.000000000000e+00 1.283679156717e-02 -4.659322682973e+07 -1.915552926804e+05 -1.316933944613e+07 -2.465063760090e+07 3.026454531442e-05 -9.877595055713e-06 5.296680076677e-04 0.000000000000e+00 2.813773462559e+07 2.941660957518e+07  5.154868381272e-04
1.000000000000e+03 4.499302027140e+06 1.000000000000e+00 5.246392201627e+01 0.000000000000e+00 1.273855590706e-02 -4.645082269685e+07 -1.906734677222e+05 -1.313992630794e+07 -2.449852961891e+07 2.990411663301e-05 -9.812088058817e-06 5.251107706121e-04 0.000000000000e+00 2.802975954124e+07 2.933219218723e+07  5.110982636353e-04
1.100000000000e+03 4.503447343828e+06 1.000000000000e+00 5.216939453202e+01 0.000000000000e+00 1.263608958903e-02 -4.630295187049e+07 -1.897696815234e+05 -1.311068900986e+07 -2.434243256440e+07 2.959857101625e-05 -9.744949655479e-06 5.203988368019e-04 0.000000000000e+00 2.791869114825e+07 2.924345106574e+07  5.065302112949e-04
1.200000000000e+03 4.506708720430e+06 1.000000000000e+00 5.192027878423e+01 0.000000000000e+00 1.255073564588e-02 -4.617945804533e+07 -1.890056705842e+05 -1.308532416662e+07 -2.421070308034e+07 2.929267511395e-05 -9.688194557132e-06 5.164481501428e-04 0.000000000000e+00 2.782516176410e+07 2.917050125323e+07  5.027227745659e-04
1.300000000000e+03 4.509614096533e+06 1.000000000000e+00 5.168221878027e+01 0.000000000000e+00 1.246944725686e-02 -4.606197900536e+07 -1.882747496313e+05 -1.306102639368e+07 -2.408496725617e+07 2.898599455824e-05 -9.633897572065e-06 5.126804510972e-04 0.000000000000e+00 2.773599088507e+07 2.910147655300e+07  4.990985033031e-04
1.400000000000e+03 4.512353612459e+06 1.000000000000e+00 5.143783092469e+01 0.000000000000e+00 1.238551764107e-02 -4.594124053114e+07 -1.875217976223e+05 -1.303642117808e+07 -2.395594641547e+07 2.867836380325e-05 -9.577963994249e-06 5.088021564504e-04 0.000000000000e+00 2.764453604156e+07 2.903039193644e+07  4.953641910709e-04
1.500000000000e+03 4.514993501238e+06 1.000000000000e+00 5.117705579845e+01 0.000000000000e+00 1.229503892528e-02 -4.581189296347e+07 -1.867151010854e+05 -1.301076697637e+07 -2.381829248750e+07 2.836984184926e-05 -9.518037965794e-06 5.046421666184e-04 0.000000000000e+00 2.754698414245e+07 2.895379172722e+07  4.913488831152e-04
1.600000000000e+03 4.517554546543e+06 1.000000000000e+00 5.089375722870e+01 0.000000000000e+00 1.219561518588e-02 -4.567068666168e+07 -1.858348768304e+05 -1.298362008124e+07 -2.366874985363e+07 2.806020665755e-05 -9.452649878280e-06 5.000960391792e-04 0.000000000000e+00 2.744101886551e+07 2.886960989346e+07  4.869483372613e-04
1.700000000000e+03 4.520041835520e+06 1.000000000000e+00 5.058414745178e+01 0.000000000000e+00 1.208576360360e-02 -4.551561657169e+07 -1.848688757888e+05 -1.295471085465e+07 -2.350531041649e+07 2.774934519173e-05 -9.380889800905e-06 4.950992027872e-04 0.000000000000e+00 2.732521261428e+07 2.877660828070e+07  4.820980930860e-04
1.800000000000e+03 4.522455244882e+06 1.000000000000e+00 5.024594045525e+01 0.000000000000e+00 1.196458955091e-02 -4.534547311746e+07 -1.838095752146e+05 -1.292387855216e+07 -2.332676299311e+07 2.743719776656e-05 -9.302198901112e-06 4.896126411540e-04 0.000000000000e+00 2.719870488758e+07 2.867408333450e+07  4.767591971299e-04
1.900000000000e+03 4.524794537194e+06 1.000000000000e+00 4.987785095037e+01 0.000000000000e+00 1.183158787740e-02 -4.515958223030e+07 -1.826529588778e+05 -1.289104503418e+07 -2.313243208160e+07 2.712371114787e-05 -9.216278830372e-06 4.836141665373e-04 0.000000000000e+00 2.706101978203e+07 2.856168778036e+07  4.709095095751e-04
2.000000000000e+03 4.527058883136e+06 1.000000000000e+00 4.947927773333e+01 0.000000000000e+00 1.168652599156e-02 -4.495762116770e+07 -1.813971607609e+05 -1.285615893481e+07 -2.292199503603e+07 2.680888892309e-05 -9.122990970262e-06 4.770937028213e-04 0.000000000000e+00 2.691192504618e+07 2.843933176519e+07  4.645389678002e-04