 TITLE = "Profiles along polylines"
 VARIABLES = "DIST" "PRESSURE1" "SATURATION1" "VELOCITY_X1" "VELOCITY_Y1" "TEMPERATURE1" "DISPLACEMENT_X1" "DISPLACEMENT_Y1" "STRESS_XX" "STRESS_XY" "STRESS_YY" "STRESS_ZZ" "STRAIN_XX" "STRAIN_XY" "STRAIN_YY" "STRAIN_PLS"  p_(1st_Invariant)  q_(2nd_Invariant)   Effective_Strain
 ZONE T="TIME=0.000000000000e+00"
0.000000000000e+00 1.000000000000e+05 1.000000000000e+00 0.000000000000e+00 0.000000000000e+00 2.500000000000e+01 0.000000000000e+00 0.000000000000e+00 -3.469356097083e+07 -2.647723766222e+04 -1.284658998549e+07 -1.133658524457e+07 0.000000000000e+00 0.000000000000e+00 0.000000000000e+00 0.000000000000e+00 1.962557873363e+07 2.263981864872e+07  0.000000000000e+00
2.928677190000e+00 1.000000000000e+05 1.000000000000e+00 0.000000000000e+00 0.000000000000e+00 2.500000000000e+01 0.000000000000e+00 0.000000000000e+00 -3.331300739866e+07 6.922673690115e+04 -1.238841595859e+07 -1.077274888414e+07 0.000000000000e+00 0.000000000000e+00 0.000000000000e+00 0.000000000000e+00 1.882472408046e+07 2.177775143325e+07  0.000000000000e+00
5.000000000000e+00 1.000000000000e+05 1.000000000000e+00 0.000000000000e+00 0.000000000000e+00 2.500000000000e+01 0.000000000000e+00 0.000000000000e+00 -3.302308397308e+07 2.736023070021e+04 -1.157263431953e+07 -1.043195410098e+07 0.000000000000e+00 0.000000000000e+00 0.000000000000e+00 0.000000000000e+00 1.834255746453e+07 2.204298734396e+07  0.000000000000e+00
6.565046960000e+00 1.000000000000e+05 1.000000000000e+00 0.000000000000e+00 0.000000000000e+00 2.500000000000e+01 0.000000000000e+00 0.000000000000e+00 -3.306697805871e+07 6.190449087679e+04 -1.066319564547e+07 -1.016523323492e+07 0.000000000000e+00 0.000000000000e+00 0.000000000000e+00 0.000000000000e+00 1.796513564637e+07 2.265712185994e+07  0.000000000000e+00
7.950196795000e+00 1.000000000000e+05 1.000000000000e+00 0.000000000000e+00 0.000000000000e+00 2.500000000000e+01 0.000000000000e+00 0.000000000000e+00 -3.321536435091e+07 1.636348027742e+05 -9.619336850226e+06 -9.890162854685e+06 0.000000000000e+00 0.000000000000e+00 0.000000000000e+00 0.000000000000e+00 1.757495468527e+07 2.346349871044e+07  0.000000000000e+00
9.176169591000e+00 1.000000000000e+05 1.000000000000e+00 0.000000000000e+00 0.000000000000e+00 2.500000000000e+01 0.000000000000e+00 0.000000000000e+00 -3.343238188095e+07 6.615726451523e+04 -8.394746790828e+06 -9.582562409851e+06 0.000000000000e+00 0.000000000000e+00 0.000000000000e+00 0.000000000000e+00 1.713656369387e+07 2.446563126466e+07  0.000000000000e+00
1.026151647400e+01 1.000000000000e+05 1.000000000000e+00 0.000000000000e+00 0.000000000000e+00 2.500000000000e+01 0.000000000000e+00 0.000000000000e+00 -3.366861898214e+07 1.791726839196e+05 -6.944577421937e+06 -9.213406213820e+06 0.000000000000e+00 0.000000000000e+00 0.000000000000e+00 0.000000000000e+00 1.660886753930e+07 2.566682713198e+07  0.000000000000e+00
1.122191314800e+01 1.000000000000e+05 1.000000000000e+00 0.000000000000e+00 0.000000000000e+00 2.500000000000e+01 0.000000000000e+00 0.000000000000e+00 -3.390233826968e+07 5.247780589764e+04 -5.177129772049e+06 -8.749056999939e+06 0.000000000000e+00 0.000000000000e+00 0.000000000000e+00 0.000000000000e+00 1.594284168056e+07 2.711641891464e+07  0.000000000000e+00
1.207197121800e+01 1.000000000000e+05 1.000000000000e+00 0.000000000000e+00 0.000000000000e+00 2.500000000000e+01 0.000000000000e+00 0.000000000000e+00 -3.402063696963e+07 3.392016848514e+05 -3.134637364530e+06 -8.167854513477e+06 0.000000000000e+00 0.000000000000e+00 0.000000000000e+00 0.000000000000e+00 1.510770961588e+07 2.870831720859e+07  0.000000000000e+00
1.282449932700e+01 1.000000000000e+05 1.000000000000e+00 0.000000000000e+00 0.000000000000e+00 2.500000000000e+01 0.000000000000e+00 0.000000000000e+00 -3.398908782598e+07 2.609732370889e+05 -6.688279747327e+05 -7.415302788029e+06 0.000000000000e+00 0.000000000000e+00 0.000000000000e+00 0.000000000000e+00 1.402440619625e+07 3.051499084375e+07  0.000000000000e+00
1.349045755400e+01 1.000000000000e+05 1.000000000000e+00 0.000000000000e+00 0.000000000000e+00 2.500000000000e+01 0.000000000000e+00 0.000000000000e+00 -3.371117786667e+07 1.028129202074e+05 2.269720227858e+06 -6.447464444683e+06 0.000000000000e+00 0.000000000000e+00 0.000000000000e+00 0.000000000000e+00 1.262964069450e+07 3.251144282279e+07  0.000000000000e+00
1.408000000000e+01 1.000000000000e+05 1.000000000000e+00 0.000000000000e+00 0.000000000000e+00 2.500000000000e+01 0.000000000000e+00 0.000000000000e+00 -3.276148941953e+07 5.168805398672e+05 5.507391194311e+06 -5.188548022063e+06 0.000000000000e+00 0.000000000000e+00 0.000000000000e+00 0.000000000000e+00 1.081421541576e+07 3.421096629314e+07  0.000000000000e+00
1.465000000000e+01 1.000000000000e+05 1.000000000000e+00 0.000000000000e+00 0.000000000000e+00 2.500000000000e+01 0.000000000000e+00 0.000000000000e+00 -3.026100754503e+07 3.722370802206e+05 9.028081871649e+06 -3.379656161212e+06 0.000000000000e+00 0.000000000000e+00 0.000000000000e+00 0.000000000000e+00 8.204193944865e+06 3.479240524287e+07  0.000000000000e+00
1.522000000000e+01 1.000000000000e+05 1.000000000000e+00 0.000000000000e+00 0.000000000000e+00 2.500000000000e+01 0.000000000000e+00 0.000000000000e+00 -2.267317646564e+07 -1.666418290369e+05 9.964110232944e+06 -8.200109780691e+05 0.000000000000e+00 0.000000000000e+00 0.000000000000e+00 0.000000000000e+00 4.509692403587e+06 2.880292704016e+07  0.000000000000e+00
1.567618708200e+01 1.000000000000e+05 1.000000000000e+00 0.000000000000e+00 0.000000000000e+00 2.500000000000e+01 0.000000000000e+00 0.000000000000e+00 -3.271803336672e+06 -4.754900677664e+06 -1.006559831535e+07 -1.006333690689e+06 0.000000000000e+00 0.000000000000e+00 0.000000000000e+00 0.000000000000e+00 4.781245114238e+06 1.159768858859e+07  0.000000000000e+00
1.601230646800e+01 1.000000000000e+05 1.000000000000e+00 0.000000000000e+00 0.000000000000e+00 2.500000000000e+01 0.000000000000e+00 0.000000000000e+00 -4.627914125657e+06 -3.037278084355e+06 -4.224999502402e+07 -1.106702842409e+07 0.000000000000e+00 0.000000000000e+00 0.000000000000e+00 0.000000000000e+00 1.931497919125e+07 3.524635384698e+07  0.000000000000e+00
1.626000000000e+01 1.000000000000e+05 1.000000000000e+00 0.000000000000e+00 0.000000000000e+00 2.500000000000e+01 0.000000000000e+00 0.000000000000e+00 -9.595405122015e+07 7.031900351246e+06 -7.455764641618e+07 -4.815606530516e+07 0.000000000000e+00 0.000000000000e+00 0.000000000000e+00 0.000000000000e+00 7.288925431383e+07 4.322142302450e+07  0.000000000000e+00
1.636000000000e+01 1.000000000000e+05 1.000000000000e+00 0.000000000000e+00 0.000000000000e+00 2.500000000000e+01 0.000000000000e+00 0.000000000000e+00 -1.238386611914e+08 -7.026292241243e+06 -1.980235283503e+06 -3.574704974809e+07 0.000000000000e+00 0.000000000000e+00 0.000000000000e+00 0.000000000000e+00 5.385531540767e+07 1.096494834153e+08  0.000000000000e+00
1.655254661500e+01 -7.000000000000e+07 6.817856140032e-01 0.000000000000e+00 0.000000000000e+00 2.500000000000e+01 0.000000000000e+00 0.000000000000e+00 0.000000000000e+00 0.000000000000e+00 0.000000000000e+00 0.000000000000e+00 0.000000000000e+00 0.000000000000e+00 0.000000000000e+00 0.000000000000e+00 -0.000000000000e+00 0.000000000000e+00  0.000000000000e+00
1.671286624100e+01 -7.000000000000e+07 6.684759947500e-01 0.000000000000e+00 0.000000000000e+00 2.500000000000e+01 0.000000000000e+00 0.000000000000e+00 0.000000000000e+00 0.000000000000e+00 0.000000000000e+00 0.000000000000e+00 0.000000000000e+00 0.000000000000e+00 0.000000000000e+00 0.000000000000e+00 -0.000000000000e+00 0.000000000000e+00  0.000000000000e+00
1.684635003100e+01 -7.000000000000e+07 6.684759947500e-01 0.000000000000e+00 0.000000000000e+00 2.500000000000e+01 0.000000000000e+00 0.000000000000e+00 0.000000000000e+00 0.000000000000e+00 0.000000000000e+00 0.000000000000e+00 0.000000000000e+00 0.000000000000e+00 0.000000000000e+00 0.000000000000e+00 -0.000000000000e+00 0.000000000000e+00  0.000000000000e+00
1.695745861500e+01 -7.000000000000e+07 6.684759947500e-01 0.000000000000e+00 0.000000000000e+00 2.500000000000e+01 0.000000000000e+00 0.000000000000e+00 0.000000000000e+00 0.000000000000e+00 0.000000000000e+00 0.000000000000e+00 0.000000000000e+00 0.000000000000e+00 0.000000000000e+00 0.000000000000e+00 -0.000000000000e+00 0.000000000000e+00  0.000000000000e+00
1.705000000000e+01 -7.000000000000e+07 6.684759947500e-01 0.000000000000e+00 0.000000000000e+00 2.500000000000e+01 0.000000000000e+00 0.000000000000e+00 0.000000000000e+00 0.000000000000e+00 0.000000000000e+00 0.000000000000e+00 0.000000000000e+00 0.000000000000e+00 0.000000000000e+00 0.000000000000e+00 -0.000000000000e+00 0.000000000000e+00  0.000000000000e+00
1.716700339000e+01 -7.000000000000e+07 0.000000000000e+00 0.000000000000e+00 0.000000000000e+00 2.500000000000e+01 0.000000000000e+00 0.000000000000e+00 0.000000000000e+00 0.000000000000e+00 0.000000000000e+00 0.000000000000e+00 0.000000000000e+00 0.000000000000e+00 0.000000000000e+00 0.000000000000e+00 -0.000000000000e+00 0.000000000000e+00  0.000000000000e+00
1.731435117100e+01 -7.000000000000e+07 0.000000000000e+00 0.000000000000e+00 0.000000000000e+00 2.500000000000e+01 0.000000000000e+00 0.000000000000e+00 0.000000000000e+00 0.000000000000e+00 0.000000000000e+00 0.000000000000e+00 0.000000000000e+00 0.000000000000e+00 0.000000000000e+00 0.000000000000e+00 -0.000000000000e+00 0.000000000000e+00  0.000000000000e+00
1.750000000000e+01 -7.000000000000e+07 0.000000000000e+00 0.000000000000e+00 0.000000000000e+00 2.500000000000e+01 0.000000000000e+00 0.000000000000e+00 0.000000000000e+00 0.000000000000e+00 0.000000000000e+00 0.000000000000e+00 0.000000000000e+00 0.000000000000e+00 0.000000000000e+00 0.000000000000e+00 -0.000000000000e+00 0.000000000000e+00  0.000000000000e+00
1.768564882900e+01 -7.000000000000e+07 0.000000000000e+00 0.000000000000e+00 0.000000000000e+00 2.500000000000e+01 0.000000000000e+00 0.000000000000e+00 0.000000000000e+00 0.000000000000e+00 0.000000000000e+00 0.000000000000e+00 0.000000000000e+00 0.000000000000e+00 0.000000000000e+00 0.000000000000e+00 -0.000000000000e+00 0.000000000000e+00  0.000000000000e+00
1.783299661000e+01 -7.000000000000e+07 0.000000000000e+00 0.000000000000e+00 0.000000000000e+00 2.500000000000e+01 0.000000000000e+00 0.000000000000e+00 0.000000000000e+00 0.000000000000e+00 0.000000000000e+00 0.000000000000e+00 0.000000000000e+00 0.000000000000e+00 0.000000000000e+00 0.000000000000e+00 -0.000000000000e+00 0.000000000000e+00  0.000000000000e+00
1.795000000000e+01 -7.000000000000e+07 6.684759947500e-01 0.000000000000e+00 0.000000000000e+00 2.500000000000e+01 0.000000000000e+00 0.000000000000e+00 0.000000000000e+00 0.000000000000e+00 0.000000000000e+00 0.000000000000e+00 0.000000000000e+00 0.000000000000e+00 0.000000000000e+00 0.000000000000e+00 -0.000000000000e+00 0.000000000000e+00  0.000000000000e+00
1.804254138500e+01 -7.000000000000e+07 6.684759947500e-01 0.000000000000e+00 0.000000000000e+00 2.500000000000e+01 0.000000000000e+00 0.000000000000e+00 0.000000000000e+00 0.000000000000e+00 0.000000000000e+00 0.000000000000e+00 0.000000000000e+00 0.000000000000e+00 0.000000000000e+00 0.000000000000e+00 -0.000000000000e+00 0.000000000000e+00  0.000000000000e+00
1.815364996900e+01 -7.000000000000e+07 6.684759947500e-01 0.000000000000e+00 0.000000000000e+00 2.500000000000e+01 0.000000000000e+00 0.000000000000e+00 0.000000000000e+00 0.000000000000e+00 0.000000000000e+00 0.000000000000e+00 0.000000000000e+00 0.000000000000e+00 0.000000000000e+00 0.000000000000e+00 -0.000000000000e+00 0.000000000000e+00  0.000000000000e+00
1.828713375900e+01 -7.000000000000e+07 6.684759947500e-01 0.000000000000e+00 0.000000000000e+00 2.500000000000e+01 0.000000000000e+00 0.000000000000e+00 0.000000000000e+00 0.000000000000e+00 0.000000000000e+00 0.000000000000e+00 0.000000000000e+00 0.000000000000e+00 0.000000000000e+00 0.000000000000e+00 -0.000000000000e+00 0.000000000000e+00  0.000000000000e+00
1.844745338500e+01 -7.000000000000e+07 6.817856140032e-01 0.000000000000e+00 0.000000000000e+00 2.500000000000e+01 0.000000000000e+00 0.000000000000e+00 0.000000000000e+00 0.000000000000e+00 0.000000000000e+00 0.000000000000e+00 0.000000000000e+00 0.000000000000e+00 0.000000000000e+00 0.000000000000e+00 -0.000000000000e+00 0.000000000000e+00  0.000000000000e+00
1.864000000000e+01 1.000000000000e+05 1.000000000000e+00 0.000000000000e+00 0.000000000000e+00 2.500000000000e+01 0.000000000000e+00 0.000000000000e+00 -2.319273954800e+08 3.788980858901e+06 -7.005705963336e+06 -6.967448296072e+07 0.000000000000e+00 0.000000000000e+00 0.000000000000e+00 0.000000000000e+00 1.028691948014e+08 2.011582559853e+08  0.000000000000e+00
1.874000000000e+01 1.000000000000e+05 1.000000000000e+00 0.000000000000e+00 0.000000000000e+00 2.500000000000e+01 0.000000000000e+00 0.000000000000e+00 -2.622947254736e+08 -9.662293659708e+06 -7.990405636168e+07 -9.965097853633e+07 0.000000000000e+00 0.000000000000e+00 0.000000000000e+00 0.000000000000e+00 1.472832534572e+08 1.741686611375e+08  0.000000000000e+00
1.898769353200e+01 1.000000000000e+05 1.000000000000e+00 0.000000000000e+00 0.000000000000e+00 2.500000000000e+01 0.000000000000e+00 0.000000000000e+00 -1.240732367467e+08 7.863062662266e+05 -1.038733269016e+08 -6.537421341532e+07 0.000000000000e+00 0.000000000000e+00 0.000000000000e+00 0.000000000000e+00 9.777359235456e+07 5.166963858160e+07  0.000000000000e+00
1.932381291800e+01 1.000000000000e+05 1.000000000000e+00 0.000000000000e+00 0.000000000000e+00 2.500000000000e+01 0.000000000000e+00 0.000000000000e+00 -5.823798813833e+07 4.288987468422e+06 -9.081703023063e+07 -4.170529231561e+07 0.000000000000e+00 0.000000000000e+00 0.000000000000e+00 0.000000000000e+00 6.358677022819e+07 4.391502759238e+07  0.000000000000e+00
1.978000000000e+01 1.000000000000e+05 1.000000000000e+00 0.000000000000e+00 0.000000000000e+00 2.500000000000e+01 0.000000000000e+00 0.000000000000e+00 -4.053585222311e+07 7.874782198601e+05 -6.604642843041e+07 -2.896129308779e+07 0.000000000000e+00 0.000000000000e+00 0.000000000000e+00 0.000000000000e+00 4.518119124710e+07 3.289215645611e+07  0.000000000000e+00
2.035000000000e+01 1.000000000000e+05 1.000000000000e+00 0.000000000000e+00 0.000000000000e+00 2.500000000000e+01 0.000000000000e+00 0.000000000000e+00 -3.485802759213e+07 9.678957213728e+05 -5.130862602691e+07 -2.283411762652e+07 0.000000000000e+00 0.000000000000e+00 0.000000000000e+00 0.000000000000e+00 3.633359041519e+07 2.481547058926e+07  0.000000000000e+00
2.092000000000e+01 1.000000000000e+05 1.000000000000e+00 0.000000000000e+00 0.000000000000e+00 2.500000000000e+01 0.000000000000e+00 0.000000000000e+00 -3.325600314347e+07 9.450755548555e+05 -4.347161271831e+07 -1.999986620404e+07 0.000000000000e+00 0.000000000000e+00 0.000000000000e+00 0.000000000000e+00 3.224249402194e+07 2.044952000414e+07  0.000000000000e+00
2.150954244600e+01 1.000000000000e+05 1.000000000000e+00 0.000000000000e+00 0.000000000000e+00 2.500000000000e+01 0.000000000000e+00 0.000000000000e+00 -3.270168422017e+07 1.276827398374e+05 -3.853469371453e+07 -1.834978622737e+07 0.000000000000e+00 0.000000000000e+00 0.000000000000e+00 0.000000000000e+00 2.986205472069e+07 1.799346108055e+07  0.000000000000e+00
2.217550067300e+01 1.000000000000e+05 1.000000000000e+00 0.000000000000e+00 0.000000000000e+00 2.500000000000e+01 0.000000000000e+00 0.000000000000e+00 -3.274338482684e+07 3.029557012945e+05 -3.475010892570e+07 -1.722402007795e+07 0.000000000000e+00 0.000000000000e+00 0.000000000000e+00 0.000000000000e+00 2.823917127683e+07 1.662215550191e+07  0.000000000000e+00
2.292802878200e+01 1.000000000000e+05 1.000000000000e+00 0.000000000000e+00 0.000000000000e+00 2.500000000000e+01 0.000000000000e+00 0.000000000000e+00 -3.284430562477e+07 3.756025021020e+05 -3.196988392675e+07 -1.641688465223e+07 0.000000000000e+00 0.000000000000e+00 0.000000000000e+00 0.000000000000e+00 2.707702473458e+07 1.602134549571e+07  0.000000000000e+00
2.377808685200e+01 1.000000000000e+05 1.000000000000e+00 0.000000000000e+00 0.000000000000e+00 2.500000000000e+01 0.000000000000e+00 0.000000000000e+00 -3.304151247923e+07 4.758830125214e+04 -2.985276508525e+07 -1.583696668192e+07 0.000000000000e+00 0.000000000000e+00 0.000000000000e+00 0.000000000000e+00 2.624374808214e+07 1.585277103215e+07  0.000000000000e+00
2.473848352600e+01 1.000000000000e+05 1.000000000000e+00 0.000000000000e+00 0.000000000000e+00 2.500000000000e+01 0.000000000000e+00 0.000000000000e+00 -3.334270944014e+07 1.718785444086e+05 -2.811105052916e+07 -1.540058069819e+07 0.000000000000e+00 0.000000000000e+00 0.000000000000e+00 0.000000000000e+00 2.561811355583e+07 1.598473546046e+07  0.000000000000e+00
2.582383040900e+01 1.000000000000e+05 1.000000000000e+00 0.000000000000e+00 0.000000000000e+00 2.500000000000e+01 0.000000000000e+00 0.000000000000e+00 -3.363410511943e+07 5.824018552363e+04 -2.678005933385e+07 -1.508372552767e+07 0.000000000000e+00 0.000000000000e+00 0.000000000000e+00 0.000000000000e+00 2.516596332698e+07 1.624683203967e+07  0.000000000000e+00
2.704980320500e+01 1.000000000000e+05 1.000000000000e+00 0.000000000000e+00 0.000000000000e+00 2.500000000000e+01 0.000000000000e+00 0.000000000000e+00 -3.392220018213e+07 1.434080267178e+05 -2.571324759628e+07 -1.484478183918e+07 0.000000000000e+00 0.000000000000e+00 0.000000000000e+00 0.000000000000e+00 2.482674320586e+07 1.657681718960e+07  0.000000000000e+00
2.843495304000e+01 1.000000000000e+05 1.000000000000e+00 0.000000000000e+00 0.000000000000e+00 2.500000000000e+01 0.000000000000e+00 0.000000000000e+00 -3.419364754012e+07 4.498280817676e+04 -2.490308578872e+07 -1.467673887499e+07 0.000000000000e+00 0.000000000000e+00 0.000000000000e+00 0.000000000000e+00 2.459115740128e+07 1.690879317719e+07  0.000000000000e+00
3.000000000000e+01 1.000000000000e+05 1.000000000000e+00 0.000000000000e+00 0.000000000000e+00 2.500000000000e+01 0.000000000000e+00 0.000000000000e+00 -3.447649566527e+07 1.018617489727e+04 -2.425731848964e+07 -1.456080563327e+07 0.000000000000e+00 0.000000000000e+00 0.000000000000e+00 0.000000000000e+00 2.443153992939e+07 1.724948224904e+07  0.000000000000e+00
3.207132281000e+01 1.000000000000e+05 1.000000000000e+00 0.000000000000e+00 0.000000000000e+00 2.500000000000e+01 0.000000000000e+00 0.000000000000e+00 -3.474901131472e+07 4.192234335425e+04 -2.377276056388e+07 -1.448810968661e+07 0.000000000000e+00 0.000000000000e+00 0.000000000000e+00 0.000000000000e+00 2.433662718841e+07 1.756697899668e+07  0.000000000000e+00
3.500000000000e+01 1.000000000000e+05 1.000000000000e+00 0.000000000000e+00 0.000000000000e+00 2.500000000000e+01 0.000000000000e+00 0.000000000000e+00 -3.496672713731e+07 -3.154546128652e+04 -2.361228900757e+07 -1.449306488580e+07 0.000000000000e+00 0.000000000000e+00 0.000000000000e+00 0.000000000000e+00 2.435736034356e+07 1.776598337429e+07  0.000000000000e+00
 TITLE = "Profiles along polylines"
 VARIABLES = "DIST" "PRESSURE1" "SATURATION1" "VELOCITY_X1" "VELOCITY_Y1" "TEMPERATURE1" "DISPLACEMENT_X1" "DISPLACEMENT_Y1" "STRESS_XX" "STRESS_XY" "STRESS_YY" "STRESS_ZZ" "STRAIN_XX" "STRAIN_XY" "STRAIN_YY" "STRAIN_PLS"  p_(1st_Invariant)  q_(2nd_Invariant)   Effective_Strain
 ZONE T="TIME=1.000000000000e-03"
0.000000000000e+00 2.334135896320e+05 1.000000000000e+00 -1.865376704389e-05 -2.977637586887e-03 2.447870096528e+01 0.000000000000e+00 5.466344584500e-05 -3.448402931192e+07 -1.095175479752e+04 -1.283861322730e+07 -1.110082716868e+07 -9.741240590728e-07 1.153321584234e-06 -8.460448942956e-06 0.000000000000e+00 1.947448990263e+07 2.256456070899e+07  8.262992143462e-06
2.928677190000e+00 2.343154897181e+05 1.000000000000e+00 -4.171916973665e-05 -3.050181620321e-03 2.506534753914e+01 0.000000000000e+00 6.240819639678e-05 -3.337307866718e+07 5.193955556109e+04 -1.238041102949e+07 -1.080645660751e+07 -9.792173915340e-07 -1.284190613833e-06 1.549327091495e-06 0.000000000000e+00 1.885331543473e+07 2.182244308685e+07  3.134301479989e-06
5.000000000000e+00 2.342026657869e+05 1.000000000000e+00 -8.148800181382e-05 -3.167469276001e-03 2.499813937129e+01 0.000000000000e+00 6.176108992191e-05 -3.303347850153e+07 3.132080546943e+04 -1.158856838374e+07 -1.043917000099e+07 -1.180633421106e-07 2.942141257134e-07 -3.238175271591e-07 0.000000000000e+00 1.835373896209e+07 2.204216356415e+07  5.833109114901e-07
6.565046960000e+00 2.333162555124e+05 1.000000000000e+00 -1.269630564780e-04 -3.344799147723e-03 2.499766710388e+01 0.000000000000e+00 6.199203116407e-05 -3.308334207314e+07 6.180127830233e+04 -1.067301052434e+07 -1.017246240999e+07 -3.392940334064e-07 -7.667219816766e-09 -9.604042666292e-08 0.000000000000e+00 1.797627166916e+07 2.266500421211e+07  3.032072223834e-07
7.950196795000e+00 2.316874451051e+05 1.000000000000e+00 -1.569128191050e-04 -3.606745212935e-03 2.500053834216e+01 0.000000000000e+00 6.208563165385e-05 -3.323494744968e+07 1.638600200220e+05 -9.629399362177e+06 -9.899191550753e+06 -3.920206715276e-07 1.673042412646e-08 -3.839887564798e-08 0.000000000000e+00 1.758784612087e+07 2.347353075644e+07  3.754214282815e-07
9.176169591000e+00 2.291884807622e+05 1.000000000000e+00 -1.725290934852e-04 -3.877648086108e-03 2.499993355520e+01 0.000000000000e+00 6.211916702724e-05 -3.345486468608e+07 6.629875265713e+04 -8.405011952526e+06 -9.592370269055e+06 -4.707837058988e-07 1.051054768424e-08 -1.698552118668e-08 0.000000000000e+00 1.715074896922e+07 2.447805093032e+07  4.628830455923e-07
1.026151647400e+01 2.257922828547e+05 1.000000000000e+00 -2.114384196819e-04 -4.270388949918e-03 2.500000647750e+01 0.000000000000e+00 6.212740030059e-05 -3.369486379860e+07 1.794159860527e+05 -6.955872815223e+06 -9.224669686739e+06 -5.564499031550e-07 1.807387274455e-08 -1.185613631274e-09 0.000000000000e+00 1.662513543352e+07 2.568175050987e+07  5.567388619798e-07
1.122191314800e+01 2.214870716865e+05 1.000000000000e+00 -3.288216845295e-04 -4.679323804238e-03 2.500000066190e+01 0.000000000000e+00 6.213150776946e-05 -3.393258478494e+07 5.260172368363e+04 -5.190326823361e+06 -8.762090326998e+06 -6.393469904342e-07 9.205321244577e-09 -6.081186527504e-09 0.000000000000e+00 1.596166731177e+07 2.713342293336e+07  6.365279102442e-07
1.207197121800e+01 2.163825623022e+05 1.000000000000e+00 -3.835034952335e-04 -5.317636946557e-03 2.500000105668e+01 0.000000000000e+00 6.215039349500e-05 -3.405515730957e+07 3.394446978899e+05 -3.150848773345e+06 -8.183074291837e+06 -7.168780015724e-07 1.805239714751e-08 -3.683198835358e-08 0.000000000000e+00 1.512969345825e+07 2.872677841027e+07  6.998887693255e-07
1.282449932700e+01 2.105056869450e+05 1.000000000000e+00 -3.574856782901e-04 -5.933384292393e-03 2.499999991692e+01 0.000000000000e+00 6.220090787654e-05 -3.402788269640e+07 2.611389851275e+05 -6.890140729906e+05 -7.432997067083e+06 -7.837362506103e-07 1.231271144230e-08 -9.255328469074e-08 0.000000000000e+00 1.404996461216e+07 3.053406761936e+07  7.421092003820e-07
1.349045755400e+01 2.036250527878e+05 1.000000000000e+00 -5.393115972500e-04 -6.623956404688e-03 2.500000003766e+01 0.000000000000e+00 6.229388132040e-05 -3.375424038464e+07 1.029262456862e+05 2.244481434187e+06 -6.467954848695e+06 -8.383928041816e-07 8.418464139665e-09 -1.763687587497e-07 0.000000000000e+00 1.265923793305e+07 3.253013571901e+07  7.657380404313e-07
1.408000000000e+01 1.960039119575e+05 1.000000000000e+00 -6.844165326306e-04 -7.729354459494e-03 2.500000003922e+01 0.000000000000e+00 6.243853964870e-05 -3.280872282855e+07 5.169831232972e+05 5.475670056398e+06 -5.212234394732e+06 -8.746042073559e-07 7.620483367329e-09 -2.984341376366e-07 0.000000000000e+00 1.084842905563e+07 3.422788222562e+07  7.701674603203e-07
1.465000000000e+01 1.865279769542e+05 1.000000000000e+00 -7.700012132973e-04 -9.092213407497e-03 2.499999995812e+01 0.000000000000e+00 6.266549844786e-05 -3.031246932862e+07 3.722595777727e+05 8.987557934865e+06 -3.407251825611e+06 -8.864558557277e-07 1.671246724447e-09 -4.801929742848e-07 0.000000000000e+00 8.244054406457e+06 3.480549988115e+07  7.685881744921e-07
1.522000000000e+01 1.740556493452e+05 1.000000000000e+00 -1.072126815700e-03 -1.088016023731e-02 2.500000447452e+01 0.000000000000e+00 6.302504296610e-05 -2.272904392662e+07 -1.666172852749e+05 9.911412184098e+06 -8.525813187812e+05 -8.653216101185e-07 1.823250894885e-09 -7.476005878421e-07 0.000000000000e+00 4.556737687102e+06 2.880979968168e+07  8.128856968937e-07
1.567618708200e+01 1.608514853684e+05 1.000000000000e+00 -1.515778892800e-03 -1.360546273094e-02 2.500008180388e+01 0.000000000000e+00 6.343687781455e-05 -3.333037706117e+06 -4.754806096818e+06 -1.013040918440e+07 -1.044177610143e+06 -8.687881424946e-07 7.026005731848e-09 -1.001629556182e-06 0.000000000000e+00 4.835874833553e+06 1.161145619386e+07  9.423368914797e-07
1.601230646800e+01 1.487274502835e+05 1.000000000000e+00 -1.287594278505e-03 -1.590546896158e-02 2.500080995938e+01 0.000000000000e+00 6.377663665540e-05 -4.702279649535e+06 -3.036145429548e+06 -4.232114642698e+07 -1.111091442794e+07 -1.132096458158e-06 8.414007142249e-08 -1.012714824319e-06 0.000000000000e+00 1.937811350149e+07 3.525363380697e+07  1.087189723595e-06
1.626000000000e+01 1.375363589691e+05 1.000000000000e+00 -1.685707504291e-03 -1.821868912144e-02 2.500341806563e+01 0.000000000000e+00 6.387948947290e-05 -9.607520257808e+07 7.038937860088e+06 -7.459518863706e+07 -4.820476019746e+07 -2.691240152245e-06 5.227863711193e-07 4.142420812485e-07 0.000000000000e+00 7.295838380420e+07 4.328224141053e+07  3.057631722465e-06
1.636000000000e+01 1.321562803133e+05 1.000000000000e+00 -2.221589525574e-03 -2.082631007889e-02 2.500658919670e+01 0.000000000000e+00 6.372094559960e-05 -1.239407096956e+08 -7.005444024139e+06 -1.926893938764e+06 -3.576028201833e+07 2.507590758383e-05 3.154487440479e-05 4.582591643270e-05 0.000000000000e+00 5.387596188423e+07 1.097777634261e+08  6.756424066236e-05
1.655254661500e+01 -6.993840078841e+07 6.819894981184e-01 -7.782662983701e-04 -4.209881966832e-03 2.504815405914e+01 0.000000000000e+00 1.506318970087e-04 -6.763770407087e+05 1.136512688249e+04 -6.770482685818e+05 -4.741052252978e+05 -8.614099394470e-04 9.680076524520e-05 -8.642684808622e-04 0.000000000000e+00 6.091768448628e+05 2.035622918521e+05  8.789816809699e-04
1.671286624100e+01 -6.999994537896e+07 6.684871907380e-01 -3.562881979819e-07 -3.361959701310e-06 2.524653827580e+01 0.000000000000e+00 1.810721879239e-04 -2.278511786754e+05 -2.719195411139e+04 7.448325917673e+03 -7.794727216428e+04 -6.383920308832e-04 -2.316033946396e-04 3.636721053963e-04 0.000000000000e+00 9.945004164066e+04 2.116197774679e+05  9.658610440968e-04
1.684635003100e+01 -6.999999993738e+07 6.684760005844e-01 3.944945903568e-10 -1.874136396983e-07 2.598966082925e+01 0.000000000000e+00 1.445595658359e-04 -1.690656037161e+05 -2.173402935417e+03 -3.404357629923e+04 -7.394030207753e+04 -4.051077514577e-04 -1.851163383479e-05 1.699071918003e-04 0.000000000000e+00 9.234982736429e+04 1.202078651947e+05  5.126787554649e-04
1.695745861500e+01 -6.999999998899e+07 6.684759948411e-01 1.988127164834e-10 -1.844061247763e-07 2.807494333416e+01 0.000000000000e+00 1.337353217592e-04 -1.302781356351e+05 4.228908264191e+03 -6.115709028638e+04 -7.608747376653e+04 -2.307804212068e-04 3.601909247103e-05 6.358365204481e-05 0.000000000000e+00 8.917423322933e+04 6.342146752226e+04  2.754423182588e-04
1.705000000000e+01 -6.999999537629e+07 6.684760111000e-01 6.369829132826e-10 -1.838934405735e-07 3.309920063102e+01 0.000000000000e+00 1.358810477711e-04 2.983040647808e+07 7.245974581047e+05 1.711363956549e+07 1.407245888075e+07 1.421028172004e-04 2.079032396054e-05 -1.700462378206e-05 0.000000000000e+00 -2.033883497477e+07 1.453320511802e+07  1.555489811676e-04
1.716700339000e+01 -7.000000000000e+07 0.000000000000e+00 0.000000000000e+00 0.000000000000e+00 2.500000000000e+01 0.000000000000e+00 1.225099265253e-04 6.624350224901e+07 -9.786431359456e+05 6.764655543867e+07 4.016701730630e+07 1.694971521276e-04 -1.272236076729e-05 1.786169978604e-04 0.000000000000e+00 -5.801902499799e+07 2.685910549063e+07  1.756240855793e-04
1.731435117100e+01 -7.000000000000e+07 0.000000000000e+00 0.000000000000e+00 0.000000000000e+00 2.500000000000e+01 0.000000000000e+00 9.639131765506e-05 6.728441414964e+07 -4.225586111080e+02 6.757058807514e+07 4.045650066743e+07 1.743814376343e-04 -5.493261944404e-09 1.762415681501e-04 0.000000000000e+00 -5.843716763074e+07 2.697213909155e+07  1.753189042887e-04
1.750000000000e+01 -7.000000000000e+07 0.000000000000e+00 0.000000000000e+00 0.000000000000e+00 2.500000000000e+01 0.000000000000e+00 6.371339107338e-05 6.738861818259e+07 -4.168998819274e-01 6.754273835374e+07 4.047940696090e+07 1.749098729410e-04 -5.419698465056e-12 1.759116540535e-04 0.000000000000e+00 -5.847025449908e+07 2.698660137623e+07  1.754129089455e-04
1.768564882900e+01 -7.000000000000e+07 0.000000000000e+00 0.000000000000e+00 0.000000000000e+00 2.500000000000e+01 0.000000000000e+00 3.103544552885e-05 6.728408017618e+07 4.203842538944e+02 6.757048908553e+07 4.045637077851e+07 1.743801110848e-04 5.464995300627e-09 1.762417689956e-04 0.000000000000e+00 -5.843698001341e+07 2.697205437315e+07  1.753183536171e-04
1.783299661000e+01 -7.000000000000e+07 0.000000000000e+00 0.000000000000e+00 0.000000000000e+00 2.500000000000e+01 0.000000000000e+00 4.916794822884e-06 6.624293270676e+07 9.786417591293e+05 6.764639589326e+07 4.016679858001e+07 1.694948718239e-04 1.272234286868e-05 1.786173825361e-04 0.000000000000e+00 -5.801870906001e+07 2.685897602820e+07  1.756232461390e-04
1.795000000000e+01 -7.000000462371e+07 6.684759784001e-01 -6.369868078901e-10 -1.838933718437e-07 3.309920075785e+01 0.000000000000e+00 -8.454379398173e-06 2.982985814321e+07 -7.246018802727e+05 1.711342967099e+07 1.407222584859e+07 1.420871724046e-04 -2.079245367692e-05 -1.713332295318e-05 0.000000000000e+00 -2.033850455426e+07 1.453288919349e+07  1.556075805332e-04