 TITLE = "Time curves in points"
 VARIABLES = "TIME"  "PRESSURE1"  "SATURATION1"  "TEMPERATURE1"  "DISPLACEMENT_X1"  "DISPLACEMENT_Y1"  "STRESS_XX"  "STRESS_XY"  "STRESS_YY"  "STRESS_ZZ"  "STRAIN_XX"  "STRAIN_XY"  "STRAIN_YY"  "STRAIN_PLS"  p_(1st_Invariant)  q_(2nd_Invariant)   Effective_Strain
 ZONE T="POINT=POINT1"
0.000000000000e+00 -7.000000000000e+07 6.684759947500e-01 2.500000000000e+01 0.000000000000e+00 0.000000000000e+00 0.000000000000e+00 0.000000000000e+00 0.000000000000e+00 0.000000000000e+00 0.000000000000e+00 0.000000000000e+00 0.000000000000e+00 0.000000000000e+00 -0.000000000000e+00 0.000000000000e+00  0.000000000000e+00
1.000000000000e-03 -7.000000000000e+07 6.684759947500e-01 3.232023738439e+01 4.117428646097e-05 6.346671831316e-05 1.496974299067e+07 -8.525727049640e+01 2.081890811746e+07 1.051821015985e+07 -5.358827457922e-03 -2.469276889483e-07 1.594242450885e-04 0.000000000000e+00 -1.543562042266e+07 8.947995744355e+06  5.440291813742e-03
2.000000000000e-03 -7.014850476643e+07 6.679067897543e-01 3.570588582001e+01 4.114455370624e-05 6.324717718386e-05 1.491672181012e+07 -1.527576036457e+02 2.077000886088e+07 1.048186558236e+07 -5.390823259633e-03 -4.434389565456e-07 1.591143813930e-04 0.000000000000e+00 -1.538953208445e+07 8.937975478794e+06  5.472115760932e-03
3.000000000000e-03 -7.034584212678e+07 6.671498393682e-01 3.806671392272e+01 4.111546452216e-05 6.283602020772e-05 1.485498170247e+07 -1.390327131512e+02 2.071697258038e+07 1.044249105969e+07 -5.443654498204e-03 -3.975558728150e-07 1.588755948750e-04 0.000000000000e+00 -1.533814844752e+07 8.927429119303e+06  5.524805885396e-03
4.000000000000e-03 -7.057409620785e+07 6.662740536605e-01 3.994099643263e+01 4.108694469623e-05 6.242936751105e-05 1.478790983667e+07 -1.729838844736e+02 2.066126464700e+07 1.040104001548e+07 -5.508273460801e-03 -4.994278284416e-07 1.586710351487e-04 0.000000000000e+00 -1.528340483305e+07 8.916645479802e+06  5.589298454775e-03
1.000000000000e-02 -7.196738171364e+07 6.609162175174e-01 4.632076282057e+01 4.092986683865e-05 5.966353854632e-05 1.439528375289e+07 -1.708068806733e+02 2.035283846669e+07 1.016870899276e+07 -5.930538084362e-03 -4.915811668584e-07 1.578246723426e-04 0.000000000000e+00 -1.497227707078e+07 8.862078923360e+06  6.011004620877e-03
2.000000000000e-02 -7.482554363528e+07 6.498891028168e-01 5.244634498450e+01 4.067928206902e-05 5.789484967664e-05 1.365873435073e+07 -1.847616993542e+02 1.981688064172e+07 9.751416759359e+06 -6.804175538256e-03 -5.334035093695e-07 1.563638419886e-04 0.000000000000e+00 -1.440901058394e+07 8.789296327725e+06  6.883689583993e-03
3.000000000000e-02 -7.823289913023e+07 6.366992123490e-01 5.648392301527e+01 4.042689436851e-05 5.825582342331e-05 1.283968934803e+07 -1.795764407992e+02 1.926372843208e+07 9.302803576055e+06 -7.826001857659e-03 -5.171647331528e-07 1.542432483530e-04 0.000000000000e+00 -1.380207378539e+07 8.746366768505e+06  7.904252324304e-03
4.000000000000e-02 -8.182021591063e+07 6.227626406075e-01 5.936797181635e+01 4.017045470428e-05 6.096605815367e-05 1.201322478881e+07 -1.831440610377e+02 1.874642837646e+07 8.863565784654e+06 -8.880344408607e-03 -5.277475242225e-07 1.513367374665e-04 0.000000000000e+00 -1.320773964998e+07 8.744351193915e+06  8.956971743257e-03
5.000000000000e-02 -8.537027703020e+07 6.131954164790e-01 6.154241950898e+01 3.991255327077e-05 6.465361134820e-05 1.113878137013e+07 -1.757397908890e+02 1.818919900846e+07 8.392874616709e+06 -1.002795312627e-02 -5.048781314160e-07 1.565283478167e-04 0.000000000000e+00 -1.257361833177e+07 8.752610026362e+06  1.010712643266e-02
6.000000000000e-02 -8.877394248341e+07 6.061382356950e-01 6.324687899271e+01 3.965401205988e-05 7.070572206683e-05 1.025608502076e+07 -1.924218300908e+02 1.765268544752e+07 7.924153531562e+06 -1.119783455155e-02 -5.545472372937e-07 1.643952596510e-04 0.000000000000e+00 -1.194430799995e+07 8.797497820560e+06  1.128093064807e-02
7.000000000000e-02 -9.201948946480e+07 5.992513327878e-01 6.463081564230e+01 3.939486458757e-05 7.673527617940e-05 9.407792313967e+06 -1.902880525948e+02 1.718166678850e+07 7.487523980669e+06 -1.231721159496e-02 -5.485194098667e-07 1.699806245248e-04 0.000000000000e+00 -1.135899436104e+07 8.890921206868e+06  1.240307555043e-02
8.000000000000e-02 -9.509486423221e+07 5.927969686700e-01 6.578669775547e+01 3.914372432076e-05 8.351593813852e-05 8.588219863213e+06 -1.690921560365e+02 1.675294344064e+07 7.073893892186e+06 -1.338868147491e-02 -4.834874124430e-07 1.733199745064e-04 0.000000000000e+00 -1.080501906535e+07 9.017757331378e+06  1.347617742846e-02
9.000000000000e-02 -9.801209928460e+07 5.867429512936e-01 6.677688287147e+01 3.889485898190e-05 8.977914384082e-05 7.815204070114e+06 -1.958960531426e+02 1.636222480587e+07 6.688052568631e+06 -1.439682727164e-02 -5.648684472044e-07 1.763410514465e-04 0.000000000000e+00 -1.028849381487e+07 9.162740929182e+06  1.448580285216e-02
1.000000000000e-01 -1.007855979697e+08 5.806739376987e-01 6.763927498506e+01 3.865108734402e-05 9.533284841772e-05 7.096177968032e+06 -1.952159138237e+02 1.601112960654e+07 6.333321591024e+06 -1.533169881169e-02 -5.616359599263e-07 1.785257783563e-04 0.000000000000e+00 -9.813543055200e+06 9.319825126655e+06  1.542173674773e-02
2.000000000000e-01 -1.171704656740e+08 5.417757950462e-01 7.218664710381e+01 3.691625432729e-05 1.902774626441e-04 3.109885212913e+06 -1.899185105379e+02 1.416173816264e+07 4.406064336189e+06 -2.034329029546e-02 -5.495688930148e-07 1.905213747841e-04 0.000000000000e+00 -7.225895903914e+06 1.046414607043e+07  2.043921698550e-02
3.000000000000e-01 -1.325446940207e+08 5.107697108474e-01 7.513930539461e+01 3.538630205725e-05 3.001260059785e-04 -1.782768833060e+05 -1.987535165772e+02 1.247168051219e+07 2.769349319805e+06 -2.444139431538e-02 -5.742970110619e-07 2.106213254780e-04 0.000000000000e+00 -5.020917649564e+06 1.146396862228e+07  2.454738269713e-02
4.000000000000e-01 -1.456964770889e+08 4.932069994272e-01 7.723807090790e+01 3.406604280274e-05 4.057347519575e-04 -3.123406747210e+06 -2.162416011212e+02 1.086081009342e+07 1.270173461366e+06 -2.806689598244e-02 -6.227615238459e-07 2.393139286913e-04 0.000000000000e+00 -3.002525602527e+06 1.238632671505e+07  2.818731490499e-02
5.000000000000e-01 -1.564747874018e+08 4.787093806825e-01 7.884114164578e+01 3.289755226333e-05 5.083218557048e-04 -5.475192820161e+06 -2.286531070550e+02 9.589373351615e+06 8.171348708441e+04 -3.085312886370e-02 -6.544591520095e-07 2.553151886647e-04 0.000000000000e+00 -1.398631339513e+06 1.319499825814e+07  3.098157549621e-02
6.000000000000e-01 -1.652296434345e+08 4.647853114692e-01 8.010915592921e+01 3.188983771851e-05 6.083345880632e-04 -7.236998097126e+06 -2.484714876076e+02 8.639882030784e+06 -8.026835676631e+05 -3.285577393879e-02 -7.019179552987e-07 2.616607990927e-04 0.000000000000e+00 -2.000667886649e+05 1.383180703147e+07  3.298738269448e-02
7.000000000000e-01 -1.721701650450e+08 4.551801771580e-01 8.113417700642e+01 3.100140152764e-05 7.058209635638e-04 -8.703248017807e+06 -2.722083869625e+02 7.807706101779e+06 -1.551083983245e+06 -3.448932981647e-02 -7.557267058399e-07 2.701257904576e-04 0.000000000000e+00 8.155419664240e+05 1.434140872816e+07  3.462518300781e-02
8.000000000000e-01 -1.775765554771e+08 4.497184300293e-01 8.196725328507e+01 3.023288537783e-05 8.010184910143e-04 -9.967760117147e+06 -2.663551204795e+02 7.045188145995e+06 -2.211518267511e+06 -3.590027662783e-02 -7.232559586197e-07 2.840192352160e-04 0.000000000000e+00 1.711363412887e+06 1.475273381929e+07  3.604312555206e-02
9.000000000000e-01 -1.816661581190e+08 4.456108523502e-01 8.265815789349e+01 2.952832112129e-05 8.939051592369e-04 -1.099138780681e+07 -2.552078465697e+02 6.410332449283e+06 -2.749700543349e+06 -3.699225986575e-02 -6.698392098589e-07 2.946630397711e-04 0.000000000000e+00 2.443585300293e+06 1.507732538677e+07  3.714046808225e-02
1.000000000000e+00 -1.846954240274e+08 4.425806279636e-01 8.323605630106e+01 2.889940067790e-05 9.845536176949e-04 -1.184733736061e+07 -2.493601829575e+02 5.868935241743e+06 -3.201450920711e+06 -3.785924655655e-02 -6.312577529356e-07 3.015639446183e-04 0.000000000000e+00 3.059951013192e+06 1.534421019084e+07  3.801092573944e-02
2.000000000000e+00 -1.855581380113e+08 4.415814034030e-01 8.526127937994e+01 2.493471710504e-05 1.735878932108e-03 -1.524514143196e+07 -1.243843484726e+02 3.158446656987e+06 -5.128256723286e+06 -4.024098704166e-02 -1.817375937398e-07 3.174339370966e-04 0.000000000000e+00 5.738317166087e+06 1.596422349759e+07  4.040063931969e-02
3.000000000000e+00 -1.771238169579e+08 4.499424480396e-01 8.587003025629e+01 2.196841605849e-05 2.373385059119e-03 -1.680966517679e+07 2.652002370348e+02 1.487321536837e+06 -6.114515178234e+06 -4.049236717788e-02 1.163212938552e-06 3.154822111410e-04 0.000000000000e+00 7.145619606062e+06 1.592095911299e+07  4.065102648501e-02
4.000000000000e+00 -1.652471357319e+08 4.644488369466e-01 8.589316878852e+01 1.955947747419e-05 2.928483820089e-03 -1.753999081223e+07 5.464566522526e+02 3.152570756266e+05 -6.669123982234e+06 -3.984918233339e-02 2.251818749567e-06 3.097134517549e-04 0.000000000000e+00 7.964619239612e+06 1.558472334251e+07  4.000493842121e-02
5.000000000000e+00 -1.529173187484e+08 4.828791980104e-01 8.571991073989e+01 1.751710264362e-05 3.420121297627e-03 -1.788814408768e+07 8.745077228348e+02 -6.175388371668e+05 -7.027108632218e+06 -3.889273199754e-02 3.532429617123e-06 3.087921844596e-04 0.000000000000e+00 8.510930519023e+06 1.512148283784e+07  3.904804430382e-02
6.000000000000e+00 -1.413065213905e+08 4.979321558766e-01 8.558698913464e+01 1.570819472578e-05 3.863768949392e-03 -1.785630416852e+07 1.212764856967e+03 -1.238127724375e+06 -7.160225558202e+06 -3.754011406025e-02 4.798348131599e-06 2.961464911964e-04 0.000000000000e+00 8.751552483699e+06 1.458837101162e+07  3.768906086030e-02
7.000000000000e+00 -1.310733778155e+08 5.112319649887e-01 8.533221529625e+01 1.413828548780e-05 4.266881254690e-03 -1.776805562142e+07 1.542457193791e+03 -1.734211874885e+06 -7.239984964905e+06 -3.623537817955e-02 5.920119626152e-06 2.787176053362e-04 0.000000000000e+00 8.914084153737e+06 1.411095263671e+07  3.637553928530e-02
8.000000000000e+00 -1.216691857848e+08 5.297301055363e-01 8.525916735086e+01 1.269885987822e-05 4.640030681490e-03 -1.781804405518e+07 1.418478099303e+03 -2.302440571472e+06 -7.397629483813e+06 -3.522512991992e-02 5.771192410081e-06 2.736357517232e-04 0.000000000000e+00 9.172704703487e+06 1.369817421096e+07  3.536274323670e-02
9.000000000000e+00 -1.133984454550e+08 5.488325299373e-01 8.518340338735e+01 1.136927324677e-05 4.985434780277e-03 -1.785746339450e+07 1.506689169437e+03 -2.852914955320e+06 -7.550574385095e+06 -3.431019341419e-02 6.326513061194e-06 2.738737200505e-04 0.000000000000e+00 9.420317578307e+06 1.329354077466e+07  3.444794855015e-02
1.000000000000e+01 -1.058810822095e+08 5.657034737342e-01 8.510274871159e+01 1.013008340943e-05 5.307181162797e-03 -1.778330732763e+07 1.551516573698e+03 -3.303556652111e+06 -7.634566734966e+06 -3.330624030493e-02 6.672193159503e-06 2.717166319539e-04 0.000000000000e+00 9.573810238236e+06 1.287279647209e+07  3.344292849275e-02
1.100000000000e+01 -9.909834795536e+07 5.776342525681e-01 8.507480986453e+01 9.006350583735e-06 5.610717466575e-03 -1.754886697198e+07 1.498023016366e+03 -3.593763127504e+06 -7.613761616464e+06 -3.215857033098e-02 6.609985787948e-06 2.629180338039e-04 0.000000000000e+00 9.585463905317e+06 1.244209875887e+07  3.229083416052e-02
1.200000000000e+01 -9.300314186764e+07 5.883642279062e-01 8.504755401249e+01 7.951587962704e-06 5.894881616128e-03 -1.730427515345e+07 1.612621851275e+03 -3.835718920660e+06 -7.576339420384e+06 -3.105128837613e-02 6.980643993493e-06 2.537743508281e-04 0.000000000000e+00 9.572111164831e+06 1.204215508015e+07  3.117895248364e-02
1.300000000000e+01 -8.740386142849e+07 5.981863851448e-01 8.499984308181e+01 6.960031400252e-06 6.162519060469e-03 -1.710171753392e+07 1.800582522326e+03 -4.039751086897e+06 -7.542597153598e+06 -3.000828087169e-02 7.534011229272e-06 2.398048976523e-04 0.000000000000e+00 9.561355258140e+06 1.171028821013e+07  3.012890190946e-02
1.400000000000e+01 -8.210588770184e+07 6.145995165443e-01 8.491215956420e+01 6.024498212399e-06 6.415746272220e-03 -1.703199010843e+07 1.786758286882e+03 -4.338614959911e+06 -7.589734090715e+06 -2.918486383869e-02 7.483107648362e-06 2.352729191466e-04 0.000000000000e+00 9.653446386352e+06 1.142032762496e+07  2.930321154293e-02
1.500000000000e+01 -7.707667245245e+07 6.335749281008e-01 8.480862349675e+01 5.148784092779e-06 6.654850656172e-03 -1.695308133388e+07 1.633360246878e+03 -4.631787515883e+06 -7.635238609691e+06 -2.839455709048e-02 7.174447504426e-06 2.345072462239e-04 0.000000000000e+00 9.740035819819e+06 1.112783017624e+07  2.851253671322e-02
1.600000000000e+01 -7.236345789373e+07 6.513441321543e-01 8.469307935543e+01 4.330132328150e-06 6.880538343051e-03 -1.681056279368e+07 1.627336800008e+03 -4.865929750824e+06 -7.641270057990e+06 -2.755403208687e-02 7.227939067291e-06 2.313282785484e-04 0.000000000000e+00 9.772587534165e+06 1.082711220758e+07  2.767042429302e-02
1.700000000000e+01 -6.791234745764e+07 6.681089429459e-01 8.456243502287e+01 3.550175326295e-06 7.094039501026e-03 -1.662211320975e+07 1.571476202839e+03 -5.061428970112e+06 -7.620026822000e+06 -2.668298766979e-02 7.125564830950e-06 2.269325641875e-04 0.000000000000e+00 9.767856333955e+06 1.051744781794e+07  2.679717747279e-02
1.800000000000e+01 -6.368363991409e+07 6.840273091365e-01 8.441569225380e+01 2.805067022486e-06 7.296224913779e-03 -1.639097813781e+07 1.490852191345e+03 -5.219584760071e+06 -7.572790330985e+06 -2.577443008904e-02 6.981716839126e-06 2.208449806017e-04 0.000000000000e+00 9.727784409622e+06 1.020044253921e+07  2.588556197317e-02
1.900000000000e+01 -5.964109036234e+07 6.992455251589e-01 8.425166768937e+01 2.093406061044e-06 7.487648945062e-03 -1.611273762027e+07 1.378145653316e+03 -5.345893298755e+06 -7.499835787565e+06 -2.482751874402e-02 6.731877146219e-06 2.139984787743e-04 0.000000000000e+00 9.652822235530e+06 9.867788360733e+06  2.493520943428e-02
2.000000000000e+01 -5.585686369808e+07 7.134981343608e-01 8.407347318957e+01 1.422755525021e-06 7.670442536827e-03 -1.580364823110e+07 1.282670978525e+03 -5.437883281046e+06 -7.406337371817e+06 -2.387244332334e-02 6.369007142439e-06 2.065310588501e-04 0.000000000000e+00 9.549289627987e+06 9.535164761188e+06  2.397637854210e-02
2.100000000000e+01 -5.225079300365e+07 7.254358781776e-01 8.398514428292e+01 7.952210859363e-07 7.843862636661e-03 -1.543932315247e+07 1.110007682081e+03 -5.480667093800e+06 -7.278324093658e+06 -2.287143135621e-02 5.942323735803e-06 1.970433814617e-04 0.000000000000e+00 9.399438113310e+06 9.192614269475e+06  2.297058920626e-02
2.200000000000e+01 -4.887826487744e+07 7.362140430169e-01 8.389528359685e+01 1.897337039290e-07 8.009931903171e-03 -1.507520992357e+07 9.921796134106e+02 -5.513750799203e+06 -7.147468161582e+06 -2.189040776325e-02 5.624511733223e-06 1.872351597375e-04 0.000000000000e+00 9.245476294785e+06 8.858318925122e+06  2.198462549024e-02
2.300000000000e+01 -4.574018562972e+07 7.460097370438e-01 8.379684328610e+01 -3.798067076324e-07 8.169334485811e-03 -1.471637336234e+07 9.349603646643e+02 -5.528310319124e+06 -7.013225708556e+06 -2.093767585950e-02 5.369718718848e-06 1.766585079656e-04 0.000000000000e+00 9.085969796673e+06 8.542949292276e+06  2.102656376361e-02
2.400000000000e+01 -4.269238587950e+07 7.563764353226e-01 8.368430379411e+01 -9.172487118738e-07 8.321231544748e-03 -1.434700335166e+07 8.256196577302e+02 -5.527968699354e+06 -6.871702180240e+06 -1.998264375803e-02 5.073801472966e-06 1.659608253132e-04 0.000000000000e+00 8.915558077083e+06 8.229857944077e+06  2.006614083067e-02
2.500000000000e+01 -3.967654256060e+07 7.708915507489e-01 8.355497170030e+01 -1.435340699098e-06 8.466198850833e-03 -1.398989540063e+07 7.300522894827e+02 -5.543904216122e+06 -6.742143924851e+06 -1.904716753257e-02 4.850244750343e-06 1.576765737586e-04 0.000000000000e+00 8.758647847202e+06 7.915189515765e+06  1.912649512082e-02
2.600000000000e+01 -3.670447356012e+07 7.858914506416e-01 8.341283294671e+01 -1.934716871928e-06 8.604649420361e-03 -1.359821790897e+07 6.524604259811e+02 -5.534775684392e+06 -6.593512155622e+06 -1.807278097385e-02 4.662813738877e-06 1.490094851468e-04 0.000000000000e+00 8.575501916327e+06 7.589661674600e+06  1.814774633306e-02
2.700000000000e+01 -3.378415987266e+07 8.013115115179e-01 8.325783022120e+01 -2.416663970746e-06 8.736776760555e-03 -1.317484550548e+07 5.509531709543e+02 -5.503463586073e+06 -6.427598201090e+06 -1.706211712958e-02 4.404021457593e-06 1.398840688250e-04 0.000000000000e+00 8.368635764215e+06 7.253601634636e+06  1.713248916676e-02
2.800000000000e+01 -3.090409279901e+07 8.172340349038e-01 8.308992757535e+01 -2.883305428600e-06 8.863061429798e-03 -1.271847892354e+07 4.240909001624e+02 -5.450569652817e+06 -6.244083550976e+06 -1.601089127657e-02 4.071711443585e-06 1.302619146280e-04 0.000000000000e+00 8.137710709110e+06 6.905431412785e+06  1.607641958664e-02
2.900000000000e+01 -2.805079695306e+07 8.336885100687e-01 8.290912529285e+01 -3.339485918310e-06 8.983484865124e-03 -1.222542933443e+07 3.178002979244e+02 -5.373488664746e+06 -6.040829137914e+06 -1.491198148910e-02 3.806038877636e-06 1.200528268871e-04 0.000000000000e+00 7.879915712363e+06 6.543841167262e+06  1.497237034015e-02
3.000000000000e+01 -2.521179048495e+07 8.507178759896e-01 8.271546741867e+01 -3.779923953933e-06 9.098232142065e-03 -1.168852318181e+07 2.044352260465e+02 -5.269816259391e+06 -5.814626681835e+06 -1.375597782889e-02 3.514019191135e-06 1.092269356561e-04 0.000000000000e+00 7.590988707678e+06 6.164384693359e+06  1.381091658445e-02
3.100000000000e+01 -2.237094513560e+07 8.684068382764e-01 8.259314568183e+01 -4.211820151522e-06 9.208896685263e-03 -1.110511561365e+07 1.096162336282e+02 -5.138218771949e+06 -5.564142123450e+06 -1.253461650670e-02 3.280880714410e-06 9.765925692297e-05 0.000000000000e+00 7.269158836351e+06 5.765746088415e+06  1.258373163759e-02
3.200000000000e+01 -1.956772655423e+07 8.863825661153e-01 8.246985321704e+01 -4.638177941707e-06 9.315753688939e-03 -1.049048780008e+07 -5.448663181454e+01 -4.988099656270e+06 -5.297277453032e+06 -1.126974770643e-02 2.832261490036e-06 8.553657113263e-05 0.000000000000e+00 6.925288303126e+06 5.354498105406e+06  1.131275958876e-02
3.300000000000e+01 -1.673133303077e+07 9.049941018241e-01 8.233981299974e+01 -5.059340317900e-06 9.418592832739e-03 -9.817728651436e+06 -1.633268226612e+02 -4.803331633427e+06 -4.999776966823e+06 -9.920740284995e-03 2.540146913157e-06 7.243666990418e-05 0.000000000000e+00 6.540279083895e+06 4.919117137177e+06  9.957157205736e-03
3.400000000000e+01 -1.383224745223e+07 9.242368557644e-01 8.220152322846e+01 -5.473144519244e-06 9.517587439991e-03 -9.070066556447e+06 -2.760650035113e+02 -4.573976707521e+06 -4.662751434994e+06 -8.465147081326e-03 2.195111865771e-06 5.820296318934e-05 0.000000000000e+00 6.102264899654e+06 4.452366332576e+06  8.494398965961e-03
3.500000000000e+01 -1.083244767975e+07 9.440163700390e-01 8.205436864021e+01 -5.888679751507e-06 9.612688638066e-03 -8.236315849231e+06 -3.543654887897e+02 -4.294296504617e+06 -4.280227953753e+06 -6.881436462591e-03 1.924147591184e-06 4.248993501427e-05 0.000000000000e+00 5.603613435867e+06 3.949072462467e+06  6.902780315089e-03
3.600000000000e+01 -7.693090255608e+06 9.639533060883e-01 8.189812070245e+01 -6.312990835675e-06 9.703959601803e-03 -7.302765378213e+06 -4.578567445676e+02 -3.958958939087e+06 -3.845335686217e+06 -5.146427127177e-03 1.483328713227e-06 2.508079611505e-05 0.000000000000e+00 5.035686667839e+06 3.402041525233e+06  5.159013889492e-03
3.700000000000e+01 -4.328583435967e+06 9.832252950215e-01 8.173265493584e+01 -6.784108894987e-06 9.787734803082e-03 -6.259657982596e+06 3.725642122753e+02 -3.571810150148e+06 -3.354382493574e+06 -3.224783783914e-03 3.671223319399e-06 5.288544235336e-06 0.000000000000e+00 4.395283542106e+06 2.802893795363e+06  3.227437569810e-03
3.800000000000e+01 2.113302687005e+06 1.000000000000e+00 8.155872081366e+01 -8.506041223594e-06 9.890399712997e-03 -4.868287160479e+06 -5.776136656036e+02 -3.414436416141e+06 -2.774027806156e+06 4.766223422008e-05 -1.738673628226e-06 -3.451213103668e-05 0.000000000000e+00 3.685583794259e+06 1.858726636645e+06  7.153160134097e-05
3.900000000000e+01 2.143157947788e+06 1.000000000000e+00 8.137990686826e+01 -8.546624143654e-06 9.968898304860e-03 -4.885087316993e+06 -5.712416656532e+02 -3.429228955650e+06 -2.783338770221e+06 4.550866772821e-05 -1.736439558280e-06 -3.473045666330e-05 0.000000000000e+00 3.699218347621e+06 1.864677802153e+06  6.976263998586e-05
4.000000000000e+01 2.172544101843e+06 1.000000000000e+00 8.119015524115e+01 -8.586251406991e-06 1.004385186491e-02 -4.901513185840e+06 -5.766259951511e+02 -3.443782177055e+06 -2.792449831178e+06 4.335666100585e-05 -1.752774091546e-06 -3.493845130513e-05 0.000000000000e+00 3.712581731358e+06 1.870476376184e+06  6.800387248923e-05
4.200000000000e+01 2.229827605392e+06 1.000000000000e+00 8.091508620046e+01 -8.663357806565e-06 1.018419060507e-02 -4.933784328233e+06 -5.725929677657e+02 -3.472838506548e+06 -2.810607053446e+06 3.966567122064e-05 -1.740737073602e-06 -3.533767768910e-05 0.000000000000e+00 3.739076629409e+06 1.881594655966e+06  6.506074192198e-05
4.400000000000e+01 2.285593809494e+06 1.000000000000e+00 8.061983825060e+01 -8.737384933406e-06 1.031500704006e-02 -4.964686609530e+06 -5.609987720817e+02 -3.500958247156e+06 -2.828034076527e+06 3.621578352692e-05 -1.705075420098e-06 -3.571387707537e-05 0.000000000000e+00 3.764559644404e+06 1.892169864645e+06  6.236338573119e-05
5.000000000000e+01 2.437116678573e+06 1.000000000000e+00 7.942540918569e+01 -8.925702660886e-06 1.058869225063e-02 -5.042640444160e+06 -5.537893321036e+02 -3.575800070601e+06 -2.872506767900e+06 2.799852626344e-05 -1.681874751250e-06 -3.656242953751e-05 0.000000000000e+00 3.830315760887e+06 1.917775294979e+06  5.615077005979e-05
6.500000000000e+01 2.768502507756e+06 1.000000000000e+00 7.676264609303e+01 -9.312835571733e-06 1.105307243683e-02 -5.201555636460e+06 -5.742473304234e+02 -3.737649344031e+06 -2.965388585411e+06 1.731381974873e-05 -1.745855727479e-06 -3.814892799793e-05 0.000000000000e+00 3.968197855301e+06 1.967212923285e+06  4.924181923233e-05
8.000000000000e+01 3.023556374630e+06 1.000000000000e+00 7.431590513497e+01 -9.590083945285e-06 1.127343491372e-02 -5.314636981029e+06 -5.721843716256e+02 -3.860889300817e+06 -3.033011965095e+06 1.232091741493e-05 -1.739153617130e-06 -3.909153349648e-05 0.000000000000e+00 4.069512748980e+06 2.000572152964e+06  4.659045523277e-05
1.000000000000e+02 3.324236305531e+06 1.000000000000e+00 7.184452662722e+01 -9.910653503328e-06 1.145792690185e-02 -5.447395913848e+06 -5.756826387957e+02 -4.010430344258e+06 -3.114300532214e+06 9.682062857415e-06 -1.749836091822e-06 -4.007419759068e-05 0.000000000000e+00 4.190708930107e+06 2.038535594058e+06  4.579159674864e-05
1.860000000000e+02 3.922717201764e+06 1.000000000000e+00 6.661981393213e+01 -1.052075229225e-05 1.167723825244e-02 -5.697076458161e+06 -5.675480249466e+02 -4.303116562485e+06 -3.269510689849e+06 1.191359635874e-05 -1.725022005212e-06 -4.176410991919e-05 0.000000000000e+00 4.423234570165e+06 2.110040613691e+06  4.891484954650e-05
2.720000000000e+02 4.213038211969e+06 1.000000000000e+00 6.336169807850e+01 -1.077968252790e-05 1.150914893304e-02 -5.803649783071e+06 -5.679044182082e+02 -4.445994835138e+06 -3.339497111426e+06 1.731680776903e-05 -1.726252686799e-06 -4.200274634883e-05 0.000000000000e+00 4.529713909879e+06 2.137710749201e+06  5.291876662834e-05
3.580000000000e+02 4.354403691727e+06 1.000000000000e+00 6.123207891191e+01 -1.088684324404e-05 1.133325800521e-02 -5.845667038142e+06 -5.691699349767e+02 -4.511620071881e+06 -3.368549237094e+06 2.261083510590e-05 -1.729870603856e-06 -4.190831358210e-05 0.000000000000e+00 4.575278782372e+06 2.147371275016e+06  5.678129917826e-05
4.440000000000e+02 4.426532453839e+06 1.000000000000e+00 5.967405734163e+01 -1.092676453189e-05 1.116866760071e-02 -5.859495827592e+06 -5.690013510402e+02 -4.542099380749e+06 -3.379449882157e+06 2.698088057370e-05 -1.727917633995e-06 -4.168766477767e-05 0.000000000000e+00 4.593681696833e+06 2.149176247866e+06  5.999630250240e-05
5.300000000000e+02 4.465496889446e+06 1.000000000000e+00 5.850944880867e+01 -1.093799084166e-05 1.102606906834e-02 -5.861698241093e+06 -5.930149833115e+02 -4.556585490405e+06 -3.382657122960e+06 3.051897362737e-05 -1.802661458602e-06 -4.144538593555e-05 0.000000000000e+00 4.600313618153e+06 2.147914579225e+06  6.263982097645e-05
6.160000000000e+02 4.488012314786e+06 1.000000000000e+00 5.764216787921e+01 -1.093792337467e-05 1.090779423044e-02 -5.859727833050e+06 -5.674427449644e+02 -4.563877821490e+06 -3.382906792707e+06 3.331743852803e-05 -1.724264136649e-06 -4.122438700918e-05 0.000000000000e+00 4.602170815749e+06 2.145759098911e+06  6.474497690805e-05
7.020000000000e+02 4.501822576458e+06 1.000000000000e+00 5.701264334796e+01 -1.093457141930e-05 1.081710423302e-02 -5.856890876941e+06 -5.661933894233e+02 -4.567825807224e+06 -3.382259687017e+06 3.541294156754e-05 -1.719406751689e-06 -4.104756203155e-05 0.000000000000e+00 4.602325457060e+06 2.143718408390e+06  6.634352096208e-05
7.880000000000e+02 4.511441113274e+06 1.000000000000e+00 5.653883973093e+01 -1.093005282868e-05 1.073539087096e-02 -5.854188234180e+06 -5.700218886352e+02 -4.570861482870e+06 -3.381617075751e+06 3.708837512199e-05 -1.732782159876e-06 -4.088530835860e-05 0.000000000000e+00 4.602222264267e+06 2.141826311064e+06  6.762050919795e-05
8.740000000000e+02 4.519827167133e+06 1.000000000000e+00 5.574304354111e+01 -1.091569125454e-05 1.061986458247e-02 -5.845932508876e+06 -5.707096945075e+02 -4.570422232760e+06 -3.377769415196e+06 3.973564235873e-05 -1.733962832595e-06 -4.063928488142e-05 0.000000000000e+00 4.598041385611e+06 2.137893615101e+06  6.967295544479e-05
9.370000000000e+02 4.525201002276e+06 1.000000000000e+00 5.522765577793e+01 -1.090417596782e-05 1.052491277860e-02 -5.839927888096e+06 -5.726504589908e+02 -4.570589183384e+06 -3.375198903290e+06 4.185236281083e-05 -1.740463801305e-06 -4.044091761118e-05 0.000000000000e+00 4.595238658257e+06 2.134838355138e+06  7.133529062869e-05
1.000000000000e+03 4.529391016052e+06 1.000000000000e+00 5.483609327583e+01 -1.089445081969e-05 1.044540219911e-02 -5.834938664425e+06 -5.671740471315e+02 -4.570754285411e+06 -3.373116650738e+06 4.377837109386e-05 -1.723841198548e-06 -4.027746977884e-05 0.000000000000e+00 4.592936533525e+06 2.132260256783e+06  7.287672640528e-05
1.100000000000e+03 4.533536316160e+06 1.000000000000e+00 5.445295289415e+01 -1.088423750299e-05 1.036223373764e-02 -5.829771330953e+06 -5.693506764083e+02 -4.570960074786e+06 -3.370998735637e+06 4.586555618717e-05 -1.730627933221e-06 -4.010789263599e-05 0.000000000000e+00 4.590576713792e+06 2.129563055482e+06  7.457109573040e-05
1.200000000000e+03 4.536797682874e+06 1.000000000000e+00 5.411542736872e+01 -1.087539754998e-05 1.029312191690e-02 -5.825264788292e+06 -5.753111728872e+02 -4.570896447390e+06 -3.369079623481e+06 4.754280510952e-05 -1.743844570476e-06 -3.996523542806e-05 0.000000000000e+00 4.588413619721e+06 2.127281265209e+06  7.593892770689e-05
1.300000000000e+03 4.539703052077e+06 1.000000000000e+00 5.378901439876e+01 -1.086673660489e-05 1.022735272218e-02 -5.820849688824e+06 -5.828426838503e+02 -4.570688123365e+06 -3.367164476457e+06 4.911719320837e-05 -1.771663952584e-06 -3.982863832034e-05 0.000000000000e+00 4.586234096215e+06 2.125081912309e+06  7.723021689864e-05
1.400000000000e+03 4.542442562524e+06 1.000000000000e+00 5.345630212614e+01 -1.085756339158e-05 1.015934377896e-02 -5.816202887470e+06 -5.662555332373e+02 -4.570357834290e+06 -3.365132174671e+06 5.074320224690e-05 -1.721416820168e-06 -3.968727652818e-05 0.000000000000e+00 4.583897632144e+06 2.122786888756e+06  7.856654389496e-05
1.500000000000e+03 4.545082446453e+06 1.000000000000e+00 5.310721904628e+01 -1.084742946405e-05 1.008595957874e-02 -5.811114784380e+06 -5.670522618594e+02 -4.569893931036e+06 -3.362898445226e+06 5.250938657423e-05 -1.724349837442e-06 -3.953474482194e-05 0.000000000000e+00 4.581302386881e+06 2.120286829904e+06  8.003185036342e-05
1.600000000000e+03 4.547643486991e+06 1.000000000000e+00 5.273562257626e+01 -1.083604038786e-05 1.000519396396e-02 -5.805447451493e+06 -5.689879696121e+02 -4.569277246166e+06 -3.360405260437e+06 5.446928969742e-05 -1.729376044138e-06 -3.936704771684e-05 0.000000000000e+00 4.578376652699e+06 2.117512870439e+06  8.166967195482e-05
1.700000000000e+03 4.550130771774e+06 1.000000000000e+00 5.233772115194e+01 -1.082320339634e-05 9.915813424620e-03 -5.799112858268e+06 -5.651917468918e+02 -4.568492788207e+06 -3.357614980564e+06 5.665609867089e-05 -1.717700236614e-06 -3.918169711575e-05 0.000000000000e+00 4.575073542347e+06 2.114422453694e+06  8.350959517126e-05
1.800000000000e+03 4.552544175197e+06 1.000000000000e+00 5.191122635697e+01 -1.080880055543e-05 9.817117253799e-03 -5.792055709554e+06 -5.746374277236e+02 -4.567529554707e+06 -3.354503662975e+06 5.908958216554e-05 -1.746557432993e-06 -3.897718589660e-05 0.000000000000e+00 4.571362975745e+06 2.110990061434e+06  8.557509426308e-05
1.900000000000e+03 4.554883463306e+06 1.000000000000e+00 5.145485131349e+01 -1.079276372534e-05 9.708634252665e-03 -5.784244811672e+06 -5.682274228684e+02 -4.566379535736e+06 -3.351057261812e+06 6.178095727291e-05 -1.726757200820e-06 -3.875262419101e-05 0.000000000000e+00 4.567227203074e+06 2.107202843809e+06  8.787361295575e-05