 TITLE = "Time curves in points"
 VARIABLES = "TIME"  "PRESSURE1"  "SATURATION1"  "TEMPERATURE1"  "DISPLACEMENT_X1"  "DISPLACEMENT_Y1"  "STRESS_XX"  "STRESS_XY"  "STRESS_YY"  "STRESS_ZZ"  "STRAIN_XX"  "STRAIN_XY"  "STRAIN_YY"  "STRAIN_PLS"  p_(1st_Invariant)  q_(2nd_Invariant)   Effective_Strain
 ZONE T="POINT=POINT12"
0.000000000000e+00 1.000000000000e+05 9.737398629779e-01 2.500000000000e+01 0.000000000000e+00 0.000000000000e+00 -3.481731977959e+07 4.424821975441e+07 -2.069284027590e+07 -1.515152301665e+07 0.000000000000e+00 0.000000000000e+00 0.000000000000e+00 0.000000000000e+00 2.355389435738e+07 7.862690502985e+07  0.000000000000e+00
1.000000000000e-03 1.349371324694e+05 9.738732786163e-01 2.500485102010e+01 3.100745879409e-06 6.277264768609e-05 -3.503749028782e+07 4.424810591047e+07 -2.066703133927e+07 -1.521616785812e+07 -1.837665164518e-04 -8.193496665845e-07 4.529483472598e-05 0.000000000000e+00 2.364022982840e+07 7.866535478192e+07  2.101129282413e-04
2.000000000000e-03 1.587039335969e+05 9.739761399314e-01 2.502571714086e+01 3.673338752882e-06 6.219464372413e-05 -3.503531359258e+07 4.424799931714e+07 -2.066271142053e+07 -1.521779639046e+07 -1.813022076453e-04 -1.205939789455e-06 4.595700971763e-05 0.000000000000e+00 2.363860713452e+07 7.866468534976e+07  2.081321873958e-04
3.000000000000e-03 1.749406480237e+05 9.740586587527e-01 2.507433594527e+01 4.278714821930e-06 6.172121559107e-05 -3.503835504634e+07 4.424795663527e+07 -2.066736981459e+07 -1.522859581526e+07 -1.830478709204e-04 -1.360470471876e-06 4.668823796597e-05 0.000000000000e+00 2.364477355873e+07 7.866327617866e+07  2.103284331926e-04
4.000000000000e-03 1.860499874853e+05 9.741275031931e-01 2.515657108597e+01 4.898162343136e-06 6.121141445788e-05 -3.504482574548e+07 4.424793995915e+07 -2.068212457419e+07 -1.524932412382e+07 -1.871935526411e-04 -1.420658297501e-06 4.743744536204e-05 0.000000000000e+00 2.365875814783e+07 7.866049050793e+07  2.148901489329e-04
1.000000000000e-02 2.024129106506e+05 9.744040863014e-01 2.619876091244e+01 8.403906402430e-06 5.841689716843e-05 -3.510950598651e+07 4.424792612681e+07 -2.092363828194e+07 -1.552390895713e+07 -2.234869259920e-04 -1.469859613554e-06 5.158075829315e-05 0.000000000000e+00 2.385235107519e+07 7.861699984561e+07  2.532609075412e-04
2.000000000000e-02 2.009420820042e+05 9.748046987947e-01 2.806247193986e+01 1.358511872754e-05 5.660256423961e-05 -3.521676492584e+07 4.424792083419e+07 -2.136317716774e+07 -1.601655048783e+07 -2.791323884763e-04 -1.487999169174e-06 5.813809347422e-05 0.000000000000e+00 2.419883086047e+07 7.853797659090e+07  3.122976073024e-04
3.000000000000e-02 1.910250440631e+05 9.752023033804e-01 2.971088041292e+01 1.836570162210e-05 5.695467455808e-05 -3.531754091844e+07 4.424791410230e+07 -2.174843516555e+07 -1.645433595122e+07 -3.320082671564e-04 -1.513339783749e-06 6.473416347362e-05 0.000000000000e+00 2.450677067840e+07 7.847049137569e+07  3.686721435279e-04
4.000000000000e-02 1.778581546801e+05 9.756055980516e-01 3.110941615501e+01 2.299488408618e-05 5.963855779840e-05 -3.541501101122e+07 4.424790934583e+07 -2.206692514276e+07 -1.682789580610e+07 -3.862817827531e-04 -1.531930630340e-06 7.149490548763e-05 0.000000000000e+00 2.476994398670e+07 7.841672195792e+07  4.265552217258e-04
5.000000000000e-02 1.637479270978e+05 9.760162346351e-01 3.229341252469e+01 2.743367859127e-05 6.332396958436e-05 -3.550743728751e+07 4.424790460581e+07 -2.233048556610e+07 -1.714601505947e+07 -4.391550385794e-04 -1.550957500365e-06 7.786306187723e-05 0.000000000000e+00 2.499464597103e+07 7.837383169581e+07  4.828260314696e-04
6.000000000000e-02 1.494258948361e+05 9.764364605871e-01 3.330569315258e+01 3.162253994045e-05 6.932625069830e-05 -3.559283983043e+07 4.424790035695e+07 -2.254546508306e+07 -1.741724203104e+07 -4.880152514188e-04 -1.568062114057e-06 8.409040266391e-05 0.000000000000e+00 2.518518231484e+07 7.833947003531e+07  5.350465931972e-04
7.000000000000e-02 1.357749870608e+05 9.768612744592e-01 3.418246247047e+01 3.557810098804e-05 7.534133889752e-05 -3.567286759693e+07 4.424789451968e+07 -2.272822245651e+07 -1.765329036642e+07 -5.335562198311e-04 -1.592070037872e-06 8.975178603056e-05 0.000000000000e+00 2.535146013995e+07 7.831117721514e+07  5.836376020740e-04
8.000000000000e-02 1.234585053864e+05 9.772914050891e-01 3.495181610614e+01 3.936356405865e-05 8.214474274565e-05 -3.574895652018e+07 4.424788950902e+07 -2.288263599540e+07 -1.786067778742e+07 -5.770014085978e-04 -1.612887764229e-06 9.548931270232e-05 0.000000000000e+00 2.549742343433e+07 7.828795290504e+07  6.302016395728e-04
9.000000000000e-02 1.133681070495e+05 9.777279512532e-01 3.563501316121e+01 4.303095249619e-05 8.833426949771e-05 -3.582287694738e+07 4.424788407103e+07 -2.301845651550e+07 -1.804664262472e+07 -6.194417264848e-04 -1.635765288810e-06 1.006989745747e-04 0.000000000000e+00 2.562932536253e+07 7.826850609036e+07  6.754505976316e-04
1.000000000000e-01 1.065002133066e+05 9.781766104707e-01 3.624818141010e+01 4.651477010779e-05 9.387436537718e-05 -3.589344255237e+07 4.424787977360e+07 -2.314002072870e+07 -1.821490091796e+07 -6.594733977010e-04 -1.653207365879e-06 1.055339611310e-04 0.000000000000e+00 2.574945473301e+07 7.825179421085e+07  7.180860800983e-04
2.000000000000e-01 1.288233450336e+05 9.818831375586e-01 3.976317113285e+01 6.978522868495e-05 1.887020272538e-04 -3.634794612058e+07 4.424784861703e+07 -2.365868608508e+07 -1.914314906006e+07 -8.635302245722e-04 -1.788223533649e-06 1.141595864219e-04 0.000000000000e+00 2.638326042191e+07 7.818134393889e+07  9.259085842846e-04
3.000000000000e-01 1.602312300801e+05 9.852101015785e-01 4.209349331099e+01 9.143813163403e-05 2.983749831597e-04 -3.676973082079e+07 4.424780532042e+07 -2.383769340984e+07 -1.974903864642e+07 -1.056539737214e-03 -1.988547931299e-06 1.249207636994e-04 0.000000000000e+00 2.678548762568e+07 7.816926603694e+07  1.124222854836e-03
4.000000000000e-01 1.921149592165e+05 9.880119235020e-01 4.379251978629e+01 1.105752619152e-04 4.038107317175e-04 -3.714712744299e+07 4.424776676872e+07 -2.388534497714e+07 -2.018895399986e+07 -1.217016677749e-03 -2.179056415449e-06 1.257677919492e-04 0.000000000000e+00 2.707380880666e+07 7.818026288990e+07  1.284532162539e-03
5.000000000000e-01 2.223034531660e+05 9.901792853826e-01 4.511244472643e+01 1.284639664293e-04 5.062364148351e-04 -3.751805743016e+07 4.424773047163e+07 -2.385458423757e+07 -2.053607528641e+07 -1.390802727193e-03 -2.371236259141e-06 1.276053118429e-04 0.000000000000e+00 2.730290565138e+07 7.820888897757e+07  1.458802942682e-03
6.000000000000e-01 2.502300358423e+05 9.919296612557e-01 4.618195153606e+01 1.449009079291e-04 6.061082545995e-04 -3.788453501114e+07 4.424770430845e+07 -2.377186624321e+07 -2.082177591541e+07 -1.588078535474e-03 -2.525906454279e-06 1.408068938772e-04 0.000000000000e+00 2.749272572325e+07 7.825012530361e+07  1.662964690732e-03
7.000000000000e-01 2.760379048834e+05 9.933607485649e-01 4.707675917791e+01 1.597161530322e-04 7.036070766886e-04 -3.823376573991e+07 4.424769672488e+07 -2.366361238455e+07 -2.106335903213e+07 -1.783523796521e-03 -2.603105668349e-06 1.508385765365e-04 0.000000000000e+00 2.765357905220e+07 7.829759110454e+07  1.863532647445e-03
8.000000000000e-01 2.999799997830e+05 9.944835302632e-01 4.784238104847e+01 1.724796103765e-04 7.988996697692e-04 -3.855008443353e+07 4.424770338053e+07 -2.354877140133e+07 -2.126942711798e+07 -1.961504695840e-03 -2.617328797696e-06 1.521988835069e-04 0.000000000000e+00 2.778942765095e+07 7.834542567062e+07  2.041867906568e-03
9.000000000000e-01 3.221762364192e+05 9.953957013209e-01 4.850921061954e+01 1.842587596650e-04 8.919486647512e-04 -3.886327001801e+07 4.424771998023e+07 -2.342081499927e+07 -2.145315017831e+07 -2.154541231816e-03 -2.586978545297e-06 1.589404498630e-04 0.000000000000e+00 2.791241173186e+07 7.839839837451e+07  2.238252402256e-03
1.000000000000e+00 3.427987573409e+05 9.961320752210e-01 4.909797408547e+01 1.948901503031e-04 9.828144852419e-04 -3.916590480280e+07 4.424774835678e+07 -2.328467555016e+07 -2.161718072968e+07 -2.355376710744e-03 -2.502423298911e-06 1.703272242155e-04 0.000000000000e+00 2.802258702754e+07 7.845422584544e+07  2.444997827466e-03
2.000000000000e+00 4.782567267200e+05 9.988221752037e-01 5.228561077473e+01 2.577335837060e-04 1.736080398546e-03 -4.170383333584e+07 4.424814520230e+07 -2.190602446406e+07 -2.261735335066e+07 -4.479481960426e-03 -9.485317470442e-07 3.404156075672e-04 0.000000000000e+00 2.874240371685e+07 7.907004194446e+07  4.659026689336e-03
3.000000000000e+00 5.822587995479e+05 9.997920353832e-01 5.432796100527e+01 3.031839973937e-04 2.378778670987e-03 -4.393119278029e+07 4.424919107091e+07 -2.061469347378e+07 -2.333941254556e+07 -6.528349978711e-03 3.586298891077e-06 5.172956933591e-04 0.000000000000e+00 2.929509959988e+07 7.975916909592e+07  6.801769930852e-03
4.000000000000e+00 6.688184904294e+05 1.000000000000e+00 5.581044508543e+01 3.391851484328e-04 2.939116497276e-03 -4.589186647875e+07 4.425025304086e+07 -1.945196617384e+07 -2.391261420640e+07 -8.415803598911e-03 8.251965648115e-06 6.829795819538e-04 0.000000000000e+00 2.975214895299e+07 8.046913260541e+07  8.777256839891e-03
5.000000000000e+00 7.447381124599e+05 1.000000000000e+00 5.699682313759e+01 3.691551656955e-04 3.436435684951e-03 -4.762055604862e+07 4.425137466421e+07 -1.841921924768e+07 -2.439496431248e+07 -1.011515138098e-02 1.319696892611e-05 8.319364558774e-04 0.000000000000e+00 3.014491320293e+07 8.116945444430e+07  1.055576105249e-02
6.000000000000e+00 8.135002017407e+05 1.000000000000e+00 5.803373604215e+01 3.961571825589e-04 3.885174644650e-03 -4.918789086119e+07 4.425233593260e+07 -1.749687295559e+07 -2.482996468332e+07 -1.167265228121e-02 1.744432102215e-05 9.680598542221e-04 0.000000000000e+00 3.050490950003e+07 8.185663940945e+07  1.218559354887e-02
7.000000000000e+00 8.773078091200e+05 1.000000000000e+00 5.888973999461e+01 4.194797061497e-04 4.292391540780e-03 -5.057657798571e+07 4.425304771499e+07 -1.665756127453e+07 -2.519786660963e+07 -1.306003644149e-02 2.059031084635e-05 1.088809793523e-03 0.000000000000e+00 3.081066862329e+07 8.251517706875e+07  1.363712675322e-02
8.000000000000e+00 9.368579986811e+05 1.000000000000e+00 5.971951478020e+01 4.403269801295e-04 4.667813837808e-03 -5.183721636390e+07 4.425352800490e+07 -1.591077624180e+07 -2.554574348483e+07 -1.432355942617e-02 2.271523225348e-05 1.198512742081e-03 0.000000000000e+00 3.109791203018e+07 8.314154101607e+07  1.495892054453e-02
9.000000000000e+00 9.932402727675e+05 1.000000000000e+00 6.047163838602e+01 4.596711890947e-04 5.015929175399e-03 -5.299991375737e+07 4.425394746344e+07 -1.522317832628e+07 -2.586465473587e+07 -1.549104396542e-02 2.457266768655e-05 1.299582937097e-03 0.000000000000e+00 3.136258227317e+07 8.374698871825e+07  1.618008241055e-02
1.000000000000e+01 1.046949716293e+06 1.000000000000e+00 6.114961432683e+01 4.778808167651e-04 5.340095813768e-03 -5.408337080887e+07 4.425432737441e+07 -1.458430643305e+07 -2.615840830322e+07 -1.658177904856e-02 2.625327569116e-05 1.393467514401e-03 0.000000000000e+00 3.160869518171e+07 8.433448997823e+07  1.732066356314e-02
1.100000000000e+01 1.098279334915e+06 1.000000000000e+00 6.178708134755e+01 4.943064780409e-04 5.643935746161e-03 -5.508033275696e+07 4.425433676210e+07 -1.399493233906e+07 -2.643071718981e+07 -1.758782848518e-02 2.629642308729e-05 1.480030559930e-03 0.000000000000e+00 3.183532742861e+07 8.489445587911e+07  1.837266446188e-02
1.200000000000e+01 1.147630380353e+06 1.000000000000e+00 6.236752245958e+01 5.094139145336e-04 5.929417027197e-03 -5.600677148209e+07 4.425452697375e+07 -1.344470934916e+07 -2.668095444274e+07 -1.852468196423e-02 2.714182602865e-05 1.560209428553e-03 0.000000000000e+00 3.204414509133e+07 8.543275076992e+07  1.935207195198e-02
1.300000000000e+01 1.195264018703e+06 1.000000000000e+00 6.289298058676e+01 5.235475668017e-04 6.198133689012e-03 -5.687444782112e+07 4.425466617384e+07 -1.292553486535e+07 -2.691101340075e+07 -1.940423296600e-02 2.775815501925e-05 1.635049147155e-03 0.000000000000e+00 3.223699869574e+07 8.595278015011e+07  2.027133021832e-02
1.400000000000e+01 1.241898008649e+06 1.000000000000e+00 6.336737619028e+01 5.367396973317e-04 6.451629565957e-03 -5.768697354975e+07 4.425469074903e+07 -1.243379689439e+07 -2.712171671959e+07 -2.022973453588e-02 2.786760909104e-05 1.705026863512e-03 0.000000000000e+00 3.241416238791e+07 8.645428222777e+07  2.113395009537e-02
1.500000000000e+01 1.287086066045e+06 1.000000000000e+00 6.379459155144e+01 5.489596745159e-04 6.690833826932e-03 -5.844659594712e+07 4.425465747243e+07 -1.196917500677e+07 -2.731440333063e+07 -2.100286767026e-02 2.772106728425e-05 1.770163686497e-03 0.000000000000e+00 3.257672476151e+07 8.693586243519e+07  2.194162138234e-02
1.600000000000e+01 1.330967366046e+06 1.000000000000e+00 6.417813460760e+01 5.605215429900e-04 6.916760192326e-03 -5.916234728277e+07 4.425462729950e+07 -1.152778473342e+07 -2.749158765450e+07 -2.173309335498e-02 2.758696034816e-05 1.831018008122e-03 0.000000000000e+00 3.272723989023e+07 8.740069734536e+07  2.270409527263e-02
1.700000000000e+01 1.373681660743e+06 1.000000000000e+00 6.452110640142e+01 5.718550562557e-04 7.130299296262e-03 -5.984731081573e+07 4.425454739885e+07 -1.110575082474e+07 -2.765705714550e+07 -2.243341359646e-02 2.723454487978e-05 1.888858348384e-03 0.000000000000e+00 3.287003959532e+07 8.785410529820e+07  2.343505061155e-02
1.800000000000e+01 1.415363601907e+06 1.000000000000e+00 6.482622665961e+01 5.830361733382e-04 7.332236806342e-03 -6.050420998048e+07 4.425443169370e+07 -1.070090233121e+07 -2.781154866799e+07 -2.310628878441e-02 2.672112565683e-05 1.943837596338e-03 0.000000000000e+00 3.300555365990e+07 8.829689156975e+07  2.413702759033e-02
1.900000000000e+01 1.456105669480e+06 1.000000000000e+00 6.509588653669e+01 5.941257367993e-04 7.523263714805e-03 -6.113596522596e+07 4.425428381333e+07 -1.031203040183e+07 -2.795610582587e+07 -2.375443365304e-02 2.606618215686e-05 1.996167817217e-03 0.000000000000e+00 3.313470048455e+07 8.872975440451e+07  2.481285308954e-02
2.000000000000e+01 1.495992375948e+06 1.000000000000e+00 6.533218991584e+01 6.044085309499e-04 7.704004998338e-03 -6.172738952064e+07 4.425385743130e+07 -9.942711690178e+06 -2.808703379361e+07 -2.436213173304e-02 2.417527632081e-05 2.045162591929e-03 0.000000000000e+00 3.325237833481e+07 8.914304852689e+07  2.544646196267e-02
2.100000000000e+01 1.534950182382e+06 1.000000000000e+00 6.558585634315e+01 6.142217377204e-04 7.876724569404e-03 -6.228997002528e+07 4.425366695041e+07 -9.597459118358e+06 -2.821847895997e+07 -2.494001090027e-02 2.333302437357e-05 2.091504159310e-03 0.000000000000e+00 3.336863603454e+07 8.953890724255e+07  2.604884456507e-02
2.200000000000e+01 1.573137018867e+06 1.000000000000e+00 6.582320177682e+01 6.239385146853e-04 8.041830301581e-03 -6.283379214110e+07 4.425345372935e+07 -9.264864294317e+06 -2.834449929262e+07 -2.549888149390e-02 2.238810703088e-05 2.136161073877e-03 0.000000000000e+00 3.348105190935e+07 8.992603300870e+07  2.663132297372e-02
2.300000000000e+01 1.610620081282e+06 1.000000000000e+00 6.603970464469e+01 6.328171737811e-04 8.199611647578e-03 -6.334250888528e+07 4.425313565344e+07 -8.947491817678e+06 -2.845954508640e+07 -2.602211368209e-02 2.097836896140e-05 2.178218432874e-03 0.000000000000e+00 3.358318192979e+07 9.029507007282e+07  2.717679532221e-02
2.400000000000e+01 1.647440265274e+06 1.000000000000e+00 6.623479066443e+01 6.412473723890e-04 8.350328685183e-03 -6.382554945138e+07 4.425287921496e+07 -8.642221174150e+06 -2.856578959259e+07 -2.651944213874e-02 1.984241302298e-05 2.217685179614e-03 0.000000000000e+00 3.367785340604e+07 9.065126275033e+07  2.769497957885e-02
2.500000000000e+01 1.683655739378e+06 1.000000000000e+00 6.640880618128e+01 6.493891087085e-04 8.494242599576e-03 -6.428737520490e+07 4.425264166541e+07 -8.347581087679e+06 -2.866434788505e+07 -2.699543297588e-02 1.879000467790e-05 2.255174946326e-03 0.000000000000e+00 3.376643472588e+07 9.099672911872e+07  2.819077329374e-02
2.600000000000e+01 1.719304090802e+06 1.000000000000e+00 6.656235442298e+01 6.574023424814e-04 8.631600887888e-03 -6.473238772421e+07 4.425240268711e+07 -8.062662833212e+06 -2.875652402123e+07 -2.745447252009e-02 1.773100409739e-05 2.290909516338e-03 0.000000000000e+00 3.385052485955e+07 9.133347480733e+07  2.866867599483e-02
2.700000000000e+01 1.754414724687e+06 1.000000000000e+00 6.669611482876e+01 6.653346873953e-04 8.762637038894e-03 -6.516222720680e+07 4.425216632592e+07 -7.786784177391e+06 -2.884280011476e+07 -2.789818385321e-02 1.668276861686e-05 2.325009164215e-03 0.000000000000e+00 3.393060383298e+07 9.166221522931e+07  2.913037414778e-02
2.800000000000e+01 1.789029777743e+06 1.000000000000e+00 6.681076908106e+01 6.732929419998e-04 8.887573421804e-03 -6.557995749669e+07 4.425191365110e+07 -7.518553554437e+06 -2.892390320904e+07 -2.832972030408e-02 1.556313555095e-05 2.358108290935e-03 0.000000000000e+00 3.400747142006e+07 9.198470826237e+07  2.957936784622e-02
2.900000000000e+01 1.823176496980e+06 1.000000000000e+00 6.690697369537e+01 6.813278366317e-04 9.006617216379e-03 -6.598693446432e+07 4.425164606566e+07 -7.257902123675e+06 -2.900038386141e+07 -2.874991001191e-02 1.437785068025e-05 2.389787343889e-03 0.000000000000e+00 3.408174014980e+07 9.230137798107e+07  3.001624894110e-02
3.000000000000e+01 1.856860334171e+06 1.000000000000e+00 6.698535614097e+01 6.894107729678e-04 9.119969512434e-03 -6.638315645363e+07 4.425140734525e+07 -7.004260744231e+06 -2.907219032303e+07 -2.915948689194e-02 1.331789588855e-05 2.420513162380e-03 0.000000000000e+00 3.415320250696e+07 9.261230284733e+07  3.044201067111e-02
3.100000000000e+01 1.890005249946e+06 1.000000000000e+00 6.708519226011e+01 6.975974445144e-04 9.229180015939e-03 -6.677294072143e+07 4.425113394712e+07 -6.763816600117e+06 -2.914952927879e+07 -2.956179862056e-02 1.210638693524e-05 2.450718809337e-03 0.000000000000e+00 3.422876220011e+07 9.291585799032e+07  3.086023421778e-02
3.200000000000e+01 1.922693061172e+06 1.000000000000e+00 6.717904474686e+01 7.060228540454e-04 9.334357255054e-03 -6.715922722876e+07 4.425085367586e+07 -6.528487110993e+06 -2.922614724157e+07 -2.996009984119e-02 1.086439085722e-05 2.480468077686e-03 0.000000000000e+00 3.430462052711e+07 9.321753398959e+07  3.127420230387e-02
3.300000000000e+01 1.954949683954e+06 1.000000000000e+00 6.726264363772e+01 7.146984676490e-04 9.435557314521e-03 -6.754322399186e+07 4.425057330875e+07 -6.296800454858e+06 -2.930125102844e+07 -3.035573773388e-02 9.621548138661e-06 2.510022046781e-03 0.000000000000e+00 3.438042515839e+07 9.351859993424e+07  3.168540472716e-02
3.400000000000e+01 1.986797246050e+06 1.000000000000e+00 6.733494671336e+01 7.235807487531e-04 9.532807966487e-03 -6.792366304660e+07 4.425031093363e+07 -6.069284381862e+06 -2.937440653143e+07 -3.074729259622e-02 8.456048931914e-06 2.538654779311e-03 0.000000000000e+00 3.445578465330e+07 9.381811702069e+07  3.209201997227e-02
3.500000000000e+01 2.018278015524e+06 1.000000000000e+00 6.739570877738e+01 7.330328225688e-04 9.626174289761e-03 -6.830949817911e+07 4.425001874618e+07 -5.843265167539e+06 -2.944777687537e+07 -3.114421130992e-02 7.161071089268e-06 2.567571750985e-03 0.000000000000e+00 3.453351340734e+07 9.412178700103e+07  3.250414548673e-02
3.600000000000e+01 2.049434059600e+06 1.000000000000e+00 6.744495446282e+01 7.434556688544e-04 9.715702446858e-03 -6.870930518543e+07 4.424976874739e+07 -5.616563754107e+06 -2.952360635604e+07 -3.155452990631e-02 6.053080646020e-06 2.596610220810e-03 0.000000000000e+00 3.461649176520e+07 9.443519445954e+07  3.292970797067e-02
3.700000000000e+01 2.080353415110e+06 1.000000000000e+00 6.748283023127e+01 7.563271472637e-04 9.801450386575e-03 -6.915815137288e+07 4.425002357043e+07 -5.380351827625e+06 -2.961107796296e+07 -3.201356540561e-02 7.179956461325e-06 2.628237226823e-03 0.000000000000e+00 3.471652705449e+07 9.478157609756e+07  3.340531993437e-02
3.800000000000e+01 2.113298548489e+06 1.000000000000e+00 6.750986996814e+01 8.174963851591e-04 9.883193520324e-03 -7.072360355886e+07 4.426675184850e+07 -4.868039903295e+06 -2.998987773875e+07 -3.358851327496e-02 8.131494682295e-05 2.725275650397e-03 0.000000000000e+00 3.519384040030e+07 9.587640568750e+07  3.503103117403e-02
3.900000000000e+01 2.143157947788e+06 1.000000000000e+00 6.752535725930e+01 8.151040301336e-04 9.962077472157e-03 -7.079228272015e+07 4.424681455359e+07 -4.722334414599e+06 -2.997220009614e+07 -3.366099134712e-02 -7.046840672383e-06 2.735145832408e-03 0.000000000000e+00 3.516227241030e+07 9.595768994798e+07  3.510856349051e-02
4.000000000000e+01 2.172544101843e+06 1.000000000000e+00 6.752988574847e+01 8.098709058721e-04 1.003702046994e-02 -7.079183028211e+07 4.424681461014e+07 -4.602549565572e+06 -2.993706065393e+07 -3.366496604780e-02 -7.046916228937e-06 2.741602286483e-03 0.000000000000e+00 3.511048016721e+07 9.601732696262e+07  3.511612761915e-02
4.200000000000e+01 2.229827605392e+06 1.000000000000e+00 6.757085467195e+01 8.002569548802e-04 1.017736570401e-02 -7.079142749165e+07 4.424681441285e+07 -4.384982806791e+06 -2.987913214490e+07 -3.367218761968e-02 -7.047545463400e-06 2.753772869709e-03 0.000000000000e+00 3.501851414778e+07 9.612561305607e+07  3.513011798795e-02
4.400000000000e+01 2.285593809494e+06 1.000000000000e+00 6.759066828649e+01 7.914388100304e-04 1.030820514415e-02 -7.079062980694e+07 4.424681422574e+07 -4.176298479469e+06 -2.981999726955e+07 -3.367893396540e-02 -7.048396575215e-06 2.765174071061e-03 0.000000000000e+00 3.492897518532e+07 9.622978897181e+07  3.514320766053e-02
5.000000000000e+01 2.437116678573e+06 1.000000000000e+00 6.734086521760e+01 7.735411417206e-04 1.058190530955e-02 -7.078378070530e+07 4.424681415228e+07 -3.661663856810e+06 -2.961989770227e+07 -3.369433842167e-02 -7.048660285798e-06 2.789180680920e-03 0.000000000000e+00 3.468844742146e+07 9.648926653841e+07  3.517197346436e-02
6.500000000000e+01 2.768502507756e+06 1.000000000000e+00 6.648644605861e+01 7.503283410625e-04 1.104624501985e-02 -7.076065352211e+07 4.424681412905e+07 -2.633275155921e+06 -2.915403320928e+07 -3.371961742818e-02 -7.048553039486e-06 2.832069059395e-03 0.000000000000e+00 3.418265396244e+07 9.701155732194e+07  3.522115342971e-02
8.000000000000e+01 3.023556374630e+06 1.000000000000e+00 6.542969247624e+01 7.435750813069e-04 1.126660981334e-02 -7.073620140774e+07 4.424681360484e+07 -1.949037631387e+06 -2.875491361619e+07 -3.373321617004e-02 -7.050769467108e-06 2.853827423736e-03 0.000000000000e+00 3.381338421844e+07 9.736359817055e+07  3.524688824104e-02
1.000000000000e+02 3.324236305531e+06 1.000000000000e+00 6.427463271857e+01 7.418107415807e-04 1.145109471234e-02 -7.070892390234e+07 4.424681366743e+07 -1.285967014625e+06 -2.834376460877e+07 -3.374425656144e-02 -7.050765968955e-06 2.873033255685e-03 0.000000000000e+00 3.344621850858e+07 9.770660467432e+07  3.526865026340e-02
1.860000000000e+02 3.922717201764e+06 1.000000000000e+00 6.153628170521e+01 7.551481938207e-04 1.167042164939e-02 -7.064319550416e+07 4.424681358820e+07 -3.404629994581e+03 -2.745499985048e+07 -3.375828979663e-02 -7.051076094069e-06 2.902992756744e-03 0.000000000000e+00 3.270053332821e+07 9.837548844851e+07  3.529942941255e-02
2.720000000000e+02 4.213038211969e+06 1.000000000000e+00 5.948547595359e+01 7.810307118855e-04 1.150233237735e-02 -7.060193920712e+07 4.424681386460e+07 3.277442879048e+05 -2.698042016407e+07 -3.375378445275e-02 -7.049920244583e-06 2.892111391931e-03 0.000000000000e+00 3.241820502776e+07 9.855525352075e+07  3.528883855876e-02
3.580000000000e+02 4.354403691727e+06 1.000000000000e+00 5.805270967561e+01 8.029677547892e-04 1.132643928820e-02 -7.057367978106e+07 4.424681383529e+07 4.632263067022e+05 -2.667770154991e+07 -3.374762802785e-02 -7.050143692775e-06 2.879399192846e-03 0.000000000000e+00 3.226271834142e+07 9.863166860537e+07  3.527557765984e-02
4.440000000000e+02 4.426532453840e+06 1.000000000000e+00 5.696357475614e+01 8.211248046983e-04 1.116184990255e-02 -7.055294980744e+07 4.424681390232e+07 5.074910747527e+05 -2.646541324762e+07 -3.374155573916e-02 -7.050226975686e-06 2.866627465955e-03 0.000000000000e+00 3.217029066010e+07 9.865981438485e+07  3.526237025882e-02
5.300000000000e+02 4.465496889446e+06 1.000000000000e+00 5.612699021294e+01 8.358496310163e-04 1.101920321206e-02 -7.053742381452e+07 4.424681416930e+07 5.105488026577e+05 -2.631174443701e+07 -3.373615889370e-02 -7.049401012912e-06 2.855179425183e-03 0.000000000000e+00 3.211287314963e+07 9.866570814839e+07  3.525058016957e-02
6.160000000000e+02 4.488012314786e+06 1.000000000000e+00 5.549026067416e+01 8.475175685542e-04 1.090097934477e-02 -7.052584579655e+07 4.424681406919e+07 4.943583244633e+05 -2.620040838926e+07 -3.373161430086e-02 -7.049858211797e-06 2.845486166585e-03 0.000000000000e+00 3.207729862045e+07 9.866080198407e+07  3.524062408411e-02
7.020000000000e+02 4.501822576458e+06 1.000000000000e+00 5.502246718042e+01 8.562729780752e-04 1.081029190264e-02 -7.051744023031e+07 4.424681428026e+07 4.748667803371e+05 -2.612091932963e+07 -3.372809915394e-02 -7.049215130265e-06 2.837962788788e-03 0.000000000000e+00 3.205449759320e+07 9.865337806000e+07  3.523290996694e-02
7.880000000000e+02 4.511441113274e+06 1.000000000000e+00 5.465670951073e+01 8.635348954337e-04 1.072857092643e-02 -7.051121259549e+07 4.424681392246e+07 4.375115686034e+05 -2.606550670024e+07 -3.372489468873e-02 -7.050474612677e-06 2.830913137544e-03 0.000000000000e+00 3.204640257571e+07 9.863629013738e+07  3.522577163842e-02
8.740000000000e+02 4.519827167133e+06 1.000000000000e+00 5.406599893403e+01 8.745868610827e-04 1.061304408389e-02 -7.050058454080e+07 4.424681476198e+07 4.135995034085e+05 -2.596491668131e+07 -3.372046712242e-02 -7.047533421439e-06 2.821449772527e-03 0.000000000000e+00 3.201730057290e+07 9.862747341877e+07  3.521606501397e-02
9.370000000000e+02 4.525201002277e+06 1.000000000000e+00 5.365779407733e+01 8.830857570468e-04 1.051808832877e-02 -7.049348857163e+07 4.424681463472e+07 3.704894754141e+05 -2.590343880678e+07 -3.371667540416e-02 -7.048159922901e-06 2.813498077780e-03 0.000000000000e+00 3.200881263433e+07 9.860775543024e+07  3.520783893129e-02
1.000000000000e+03 4.529391016053e+06 1.000000000000e+00 5.333501593124e+01 8.902569845119e-04 1.043858676843e-02 -7.048777892655e+07 4.424681416721e+07 3.318849010125e+05 -2.585613532537e+07 -3.371339662001e-02 -7.049981171972e-06 2.806963063900e-03 0.000000000000e+00 3.200400978364e+07 9.858981738054e+07  3.520091705450e-02
1.100000000000e+03 4.533536316160e+06 1.000000000000e+00 5.301050912482e+01 8.977595867001e-04 1.035541379864e-02 -7.048200105091e+07 4.424681425376e+07 2.890402587447e+05 -2.580976740883e+07 -3.370990575081e-02 -7.049827222594e-06 2.800174801898e-03 0.000000000000e+00 3.200090940033e+07 9.856972135989e+07  3.519364292607e-02
1.200000000000e+03 4.536797682875e+06 1.000000000000e+00 5.273157995109e+01 9.039845529290e-04 1.028629532758e-02 -7.047706336074e+07 4.424681404825e+07 2.552830051273e+05 -2.576900722992e+07 -3.370705333540e-02 -7.050490650236e-06 2.794506084793e-03 0.000000000000e+00 3.199692919518e+07 9.855410216774e+07  3.518763168484e-02
1.300000000000e+03 4.539703052078e+06 1.000000000000e+00 5.246375662071e+01 9.098959000982e-04 1.022050715339e-02 -7.047233570698e+07 4.424681415534e+07 2.235700158533e+05 -2.572966631364e+07 -3.370435590783e-02 -7.050248358145e-06 2.789101334919e-03 0.000000000000e+00 3.199281066826e+07 9.853951340395e+07  3.518192300872e-02
1.400000000000e+03 4.542442562525e+06 1.000000000000e+00 5.218963067332e+01 9.159826838703e-04 1.015253022124e-02 -7.046750139002e+07 4.424681422977e+07 1.902322162681e+05 -2.568966364432e+07 -3.370156683707e-02 -7.050022686338e-06 2.783522541064e-03 0.000000000000e+00 3.198897760602e+07 9.852416581279e+07  3.517602628324e-02
1.500000000000e+03 4.545082446453e+06 1.000000000000e+00 5.189913200929e+01 9.225265196405e-04 1.007914292578e-02 -7.046237885225e+07 4.424681459607e+07 1.531091637705e+05 -2.564780740254e+07 -3.369854373339e-02 -7.049086716765e-06 2.777514377177e-03 0.000000000000e+00 3.198569236367e+07 9.850701464621e+07  3.516965701631e-02
1.600000000000e+03 4.547643486992e+06 1.000000000000e+00 5.158611879313e+01 9.297006781116e-04 9.998374606875e-03 -7.045685758087e+07 4.424681434128e+07 1.108330817342e+05 -2.560338580066e+07 -3.369519821842e-02 -7.049876656437e-06 2.770918453585e-03 0.000000000000e+00 3.198313676660e+07 9.848740382667e+07  3.516263880453e-02
1.700000000000e+03 4.550130771774e+06 1.000000000000e+00 5.124679990710e+01 9.376103215155e-04 9.909002224500e-03 -7.045087021853e+07 4.424681421752e+07 6.257391858895e+04 -2.555595549929e+07 -3.369147708865e-02 -7.050485313354e-06 2.763637805854e-03 0.000000000000e+00 3.198141726641e+07 9.846494714278e+07  3.515486468872e-02
1.800000000000e+03 4.552544175197e+06 1.000000000000e+00 5.087888722012e+01 9.463199252093e-04 9.810288797436e-03 -7.044437561878e+07 4.424681430556e+07 7.815742574828e+03 -2.550525324794e+07 -3.368734734494e-02 -7.050074678774e-06 2.755613086118e-03 0.000000000000e+00 3.198060437472e+07 9.843941317769e+07  3.514626891876e-02
1.900000000000e+03 4.554883463306e+06 1.000000000000e+00 5.048109404415e+01 9.558650334009e-04 9.701817562304e-03 -7.043735129640e+07 4.424681424342e+07 -5.372898517831e+04 -2.545113044863e+07 -3.368279097025e-02 -7.050496500731e-06 2.746811088348e-03 0.000000000000e+00 3.198073691007e+07 9.841068483924e+07  3.513681533026e-02
2.000000000000e+03 4.557147803229e+06 1.000000000000e+00 5.005281822980e+01 9.662630315280e-04 9.583397810826e-03 -7.042978617793e+07 4.424681433769e+07 -1.221970057122e+05 -2.539351803320e+07 -3.367779904417e-02 -7.050131265881e-06 2.737216132327e-03 0.000000000000e+00 3.198183373895e+07 9.837872149070e+07  3.512648665285e-02