 TITLE = "Time curves in points"
 VARIABLES = "TIME"  "PRESSURE1"  "SATURATION1"  "TEMPERATURE1"  "DISPLACEMENT_X1"  "DISPLACEMENT_Y1"  "STRESS_XX"  "STRESS_XY"  "STRESS_YY"  "STRESS_ZZ"  "STRAIN_XX"  "STRAIN_XY"  "STRAIN_YY"  "STRAIN_PLS"  p_(1st_Invariant)  q_(2nd_Invariant)   Effective_Strain
 ZONE T="POINT=POINT13"
0.000000000000e+00 1.000000000000e+05 1.000000000000e+00 2.500000000000e+01 0.000000000000e+00 0.000000000000e+00 -3.706013682730e+07 1.339603572887e+07 -1.648380336989e+07 -1.306013205916e+07 0.000000000000e+00 0.000000000000e+00 0.000000000000e+00 0.000000000000e+00 2.220135741878e+07 3.230967263963e+07  0.000000000000e+00
1.000000000000e-03 2.215970185909e+05 1.000000000000e+00 2.500000000096e+01 -2.814088967188e-06 6.279298340523e-05 -3.709937390302e+07 1.339695750627e+07 -1.649093674931e+07 -1.307404319569e+07 -9.406777413468e-07 6.847489300060e-08 2.517452643162e-07 0.000000000000e+00 2.222145128267e+07 3.233009574391e+07  1.095046981055e-06
2.000000000000e-03 2.374056888651e+05 1.000000000000e+00 2.500000000360e+01 -2.258504726030e-06 6.219643058495e-05 -3.709641835727e+07 1.339676173087e+07 -1.648366637392e+07 -1.307097542284e+07 -9.448461765036e-07 5.393157713333e-08 4.078419299138e-07 0.000000000000e+00 2.221702005134e+07 3.233104747214e+07  1.205463840263e-06
3.000000000000e-03 2.481523565294e+05 1.000000000000e+00 2.500000002005e+01 -1.747375808675e-06 6.171508352941e-05 -3.709579416019e+07 1.339667695594e+07 -1.647810912830e+07 -1.306912104117e+07 -9.905387471137e-07 4.763401098226e-08 5.453768765868e-07 0.000000000000e+00 2.221434144322e+07 3.233277654171e+07  1.351157604462e-06
4.000000000000e-03 2.554830814759e+05 1.000000000000e+00 2.500000026425e+01 -1.226491517640e-06 6.120156322322e-05 -3.709724314791e+07 1.339663753412e+07 -1.647375733664e+07 -1.306825055186e+07 -1.076690750564e-06 4.470553317477e-08 6.746823928010e-07 0.000000000000e+00 2.221308367880e+07 3.233525561963e+07  1.531952789577e-06
1.000000000000e-02 2.655056782691e+05 1.000000000000e+00 2.500574045669e+01 4.217190047637e-06 5.840355555858e-05 -3.714456852965e+07 1.339658148336e+07 -1.644310866451e+07 -1.307559271135e+07 -2.561781863264e-06 4.054176236476e-08 2.085770424246e-06 0.000000000000e+00 2.222108996850e+07 3.237295610403e+07  4.032540678637e-06
2.000000000000e-02 2.610996539115e+05 1.000000000000e+00 2.506298839666e+01 1.768482524827e-05 5.658617055608e-05 -3.726806709398e+07 1.339653537410e+07 -1.638009194504e+07 -1.311580692679e+07 -5.655200536172e-06 3.711650315745e-08 5.920062291997e-06 0.000000000000e+00 2.225465532194e+07 3.245841719696e+07  1.002555250336e-05
3.000000000000e-02 2.498200502418e+05 1.000000000000e+00 2.517971472982e+01 3.322713739853e-05 5.693795759457e-05 -3.740974017861e+07 1.339650718981e+07 -1.632683848516e+07 -1.318634926281e+07 -8.297199770337e-06 3.502281274203e-08 1.051819185417e-05 0.000000000000e+00 2.230764264219e+07 3.254168490683e+07  1.633251673010e-05
4.000000000000e-02 2.358078147646e+05 1.000000000000e+00 2.535078353582e+01 4.941435202521e-05 5.962094999592e-05 -3.755559831343e+07 1.339648545582e+07 -1.629027170756e+07 -1.328272969858e+07 -1.013494287779e-05 3.340828754060e-08 1.545623120783e-05 0.000000000000e+00 2.237619990652e+07 3.261308411352e+07  2.232181710848e-05
5.000000000000e-02 2.210867255385e+05 1.000000000000e+00 2.556378881541e+01 6.542550340901e-05 6.330561433446e-05 -3.769967760844e+07 1.339646810624e+07 -1.627375146231e+07 -1.339937828993e+07 -1.115379758542e-05 3.211946185086e-08 2.040250228162e-05 0.000000000000e+00 2.245760245356e+07 3.266977980988e+07  2.771710258293e-05
6.000000000000e-02 2.062323625594e+05 1.000000000000e+00 2.580558519821e+01 8.081646616978e-05 6.930639696120e-05 -3.783625740861e+07 1.339645240818e+07 -1.626988580092e+07 -1.352749542619e+07 -1.146812510160e-05 3.095332048408e-08 2.530472048044e-05 0.000000000000e+00 2.254454621191e+07 3.271341178442e+07  3.258906789698e-05
7.000000000000e-02 1.921173127982e+05 1.000000000000e+00 2.606507573398e+01 9.542891020403e-05 7.532173388311e-05 -3.796674221433e+07 1.339644175052e+07 -1.628088786592e+07 -1.366415515410e+07 -1.123877084868e-05 3.016160804975e-08 2.997200510283e-05 0.000000000000e+00 2.263726174478e+07 3.274543644674e+07  3.689826942374e-05
8.000000000000e-02 1.793834173774e+05 1.000000000000e+00 2.633384210671e+01 1.092169165604e-04 8.212420397971e-05 -3.808976865867e+07 1.339643050542e+07 -1.630067011575e+07 -1.380413243950e+07 -1.060916818091e-05 2.932625795864e-08 3.443639213825e-05 0.000000000000e+00 2.273152373797e+07 3.276870262896e+07  4.078925849800e-05
9.000000000000e-02 1.689331176524e+05 1.000000000000e+00 2.660587521050e+01 1.222124309210e-04 8.831205096007e-05 -3.820729015688e+07 1.339641856878e+07 -1.632996197956e+07 -1.394613053783e+07 -9.700037319482e-06 2.843953649885e-08 3.862262370579e-05 0.000000000000e+00 2.282779422475e+07 3.278481500178e+07  4.427686872017e-05
1.000000000000e-01 1.617743555300e+05 1.000000000000e+00 2.687705765486e+01 1.344280979355e-04 9.385162070454e-05 -3.831940992424e+07 1.339640898552e+07 -1.636666591171e+07 -1.408813285922e+07 -8.590113884261e-06 2.772763714921e-08 4.253370673473e-05 0.000000000000e+00 2.292473623172e+07 3.279521392671e+07  4.741600949445e-05
2.000000000000e-01 1.796941805816e+05 1.000000000000e+00 2.902877258995e+01 2.132136344354e-04 1.886762778836e-04 -3.903926150412e+07 1.339636316306e+07 -1.666210212660e+07 -1.515743672372e+07 4.389542401607e-06 2.432368258456e-08 7.127736229167e-05 0.000000000000e+00 2.361960011815e+07 3.278809319404e+07  6.918711750481e-05
3.000000000000e-01 2.070588055799e+05 1.000000000000e+00 3.071647659315e+01 2.693096131998e-04 2.983446591465e-04 -3.956014035395e+07 1.339633478718e+07 -1.685338739557e+07 -1.596789300161e+07 1.514527544413e-05 2.221575993598e-08 9.427514262333e-05 0.000000000000e+00 2.412714025038e+07 3.278525262789e+07  8.768899795859e-05
4.000000000000e-01 2.349366444406e+05 1.000000000000e+00 3.207113244939e+01 3.113298489629e-04 4.037725092950e-04 -3.997347288565e+07 1.339631058451e+07 -1.699571747274e+07 -1.661225808631e+07 2.372648455534e-05 2.041784789523e-08 1.129221571884e-04 0.000000000000e+00 2.452714948156e+07 3.279205288998e+07  1.031266943406e-04
5.000000000000e-01 2.614177955233e+05 1.000000000000e+00 3.318829725466e+01 3.443237151957e-04 5.061894397721e-04 -4.031874222186e+07 1.339628965212e+07 -1.709535718339e+07 -1.713895307324e+07 3.046515158208e-05 1.886287049512e-08 1.287842103073e-04 0.000000000000e+00 2.485101749283e+07 3.281305835245e+07  1.165764507284e-04
6.000000000000e-01 2.860655246122e+05 1.000000000000e+00 3.413186115956e+01 3.708791076738e-04 6.060497371727e-04 -4.061573295825e+07 1.339626050850e+07 -1.716294597195e+07 -1.758004603349e+07 3.581751989709e-05 1.669791543210e-08 1.426572223988e-04 0.000000000000e+00 2.511957498790e+07 3.284515820978e+07  1.285470760805e-04
7.000000000000e-01 3.089766518315e+05 1.000000000000e+00 3.494487203999e+01 3.925668174776e-04 7.035363013415e-04 -4.087669447492e+07 1.339622412689e+07 -1.720751362641e+07 -1.795728247253e+07 4.013630272775e-05 1.399528139674e-08 1.550134915401e-04 0.000000000000e+00 2.534716352462e+07 3.288498629348e+07  1.393500538944e-04
8.000000000000e-01 3.304295337389e+05 1.000000000000e+00 3.565691630465e+01 4.103274886252e-04 7.988157653344e-04 -4.110867331670e+07 1.339617992974e+07 -1.723612522033e+07 -1.828541074779e+07 4.370756740024e-05 1.071206491253e-08 1.661383968473e-04 0.000000000000e+00 2.554340309494e+07 3.292906533202e+07  1.491670658065e-04
9.000000000000e-01 3.504485616522e+05 1.000000000000e+00 3.628894648100e+01 4.252137092803e-04 8.918522950616e-04 -4.132026549617e+07 1.339613230467e+07 -1.725129048190e+07 -1.857518831756e+07 4.661159618232e-05 7.174202197824e-09 1.763382825803e-04 0.000000000000e+00 2.571558143188e+07 3.297836384604e+07  1.582669331772e-04
1.000000000000e+00 3.691814360826e+05 1.000000000000e+00 3.685626587202e+01 4.376977528770e-04 9.827051471267e-04 -4.151470993635e+07 1.339608044003e+07 -1.725647217828e+07 -1.883403855028e+07 4.900381133408e-05 3.321400611982e-09 1.857602567874e-04 0.000000000000e+00 2.586840688831e+07 3.303099677759e+07  1.667491708618e-04
2.000000000000e+00 4.965754139858e+05 1.000000000000e+00 4.017231608114e+01 4.808358572584e-04 1.735906470210e-03 -4.283372285167e+07 1.339575534550e+07 -1.703532526976e+07 -2.032440356291e+07 5.536831780561e-05 -2.082847881672e-08 2.493306995731e-04 0.000000000000e+00 2.673115056145e+07 3.361340786290e+07  2.267739585029e-04
3.000000000000e+00 5.964824559071e+05 1.000000000000e+00 4.245554050294e+01 4.940927642147e-04 2.378590264153e-03 -4.385297214411e+07 1.339563147683e+07 -1.673857546144e+07 -2.133950350581e+07 5.521419910818e-05 -3.003015168484e-08 2.980565474752e-04 0.000000000000e+00 2.731035037045e+07 3.420433431921e+07  2.746440649707e-04
4.000000000000e+00 6.807083713390e+05 1.000000000000e+00 4.420819266506e+01 4.958036385016e-04 2.938932590812e-03 -4.469192280776e+07 1.339560226239e+07 -1.643771757564e+07 -2.211321309857e+07 5.279095933224e-05 -3.220036702408e-08 3.379690538216e-04 0.000000000000e+00 2.774761782732e+07 3.476321658517e+07  3.149099224589e-04
5.000000000000e+00 7.551020213731e+05 1.000000000000e+00 4.565417316055e+01 4.932868535551e-04 3.436266228159e-03 -4.540945397549e+07 1.339562256978e+07 -1.615650419554e+07 -2.274901511734e+07 4.975530522804e-05 -3.069181810752e-08 3.720296257800e-04 0.000000000000e+00 2.810499109612e+07 3.527993753197e+07  3.498159345967e-04
6.000000000000e+00 8.227294698145e+05 1.000000000000e+00 4.691432353352e+01 4.902158798323e-04 3.885020756984e-03 -4.604652002687e+07 1.339565703313e+07 -1.589840344204e+07 -2.330270269851e+07 4.665839062037e-05 -2.813168369698e-08 4.021817639247e-04 0.000000000000e+00 2.841587538914e+07 3.576084151591e+07  3.810013453801e-04
7.000000000000e+00 8.856231524212e+05 1.000000000000e+00 4.800736979148e+01 4.857858580633e-04 4.292250606038e-03 -4.660456197862e+07 1.339568916135e+07 -1.566194646101e+07 -2.378063311063e+07 4.368281914843e-05 -2.574501567725e-08 4.287161528131e-04 0.000000000000e+00 2.868238051675e+07 3.620053304581e+07  4.086296614182e-04
8.000000000000e+00 9.444320508232e+05 1.000000000000e+00 4.901619071825e+01 4.823354918283e-04 4.667680672107e-03 -4.711697624912e+07 1.339571395571e+07 -1.544902068929e+07 -2.422270093595e+07 4.106995118460e-05 -2.390314901385e-08 4.530444864175e-04 0.000000000000e+00 2.892956595812e+07 3.661048777894e+07  4.339695085326e-04
9.000000000000e+00 1.000152122572e+06 1.000000000000e+00 4.993928744965e+01 4.791536777616e-04 5.015803862208e-03 -4.758625041575e+07 1.339573743129e+07 -1.525267287046e+07 -2.462684849699e+07 3.865096297710e-05 -2.215924879587e-08 4.753486005271e-04 0.000000000000e+00 2.915525726107e+07 3.699421731832e+07  4.572499417988e-04
1.000000000000e+01 1.053278720059e+06 1.000000000000e+00 5.078394817746e+01 4.760855501251e-04 5.339978377609e-03 -4.801754500812e+07 1.339576084866e+07 -1.506900211217e+07 -2.499597726962e+07 3.634194681515e-05 -2.041967295225e-08 4.958811545324e-04 0.000000000000e+00 2.936084146330e+07 3.735520277128e+07  4.787458315484e-04
1.100000000000e+01 1.104106076948e+06 1.000000000000e+00 5.157074846908e+01 4.731879302490e-04 5.643819360991e-03 -4.841705397684e+07 1.339576612799e+07 -1.489886427082e+07 -2.533945717393e+07 3.426086727986e-05 -2.002749406334e-08 5.149583850856e-04 0.000000000000e+00 2.955179180720e+07 3.769436162392e+07  4.987113651342e-04
1.200000000000e+01 1.153015525371e+06 1.000000000000e+00 5.229896758094e+01 4.702007536399e-04 5.929305025549e-03 -4.878673557913e+07 1.339577855957e+07 -1.473922592438e+07 -2.565664838134e+07 3.231122404185e-05 -1.910400468948e-08 5.326691970860e-04 0.000000000000e+00 2.972753662828e+07 3.801384787070e+07  5.172710083225e-04
1.300000000000e+01 1.200259622520e+06 1.000000000000e+00 5.297193109440e+01 4.671119412793e-04 6.198025299055e-03 -4.912934876179e+07 1.339578958537e+07 -1.458753111210e+07 -2.594876590195e+07 3.043567087961e-05 -1.828494558389e-08 5.491536551645e-04 0.000000000000e+00 2.988854859195e+07 3.831603656375e+07  5.345860156556e-04
1.400000000000e+01 1.246550173193e+06 1.000000000000e+00 5.359378133377e+01 4.638833574854e-04 6.451521702808e-03 -4.944671415488e+07 1.339579439483e+07 -1.444237356837e+07 -2.621738182980e+07 2.862497645673e-05 -1.792767138925e-08 5.645223841091e-04 0.000000000000e+00 3.003548985102e+07 3.860207510312e+07  5.507680750073e-04
1.500000000000e+01 1.291432803793e+06 1.000000000000e+00 5.416843284913e+01 4.604826667404e-04 6.690726027986e-03 -4.974085035864e+07 1.339579880639e+07 -1.430406112746e+07 -2.646456346754e+07 2.688094971888e-05 -1.759995519621e-08 5.788407356017e-04 0.000000000000e+00 3.016982498455e+07 3.887231620050e+07  5.658793112229e-04
1.600000000000e+01 1.335047033712e+06 1.000000000000e+00 5.469941050046e+01 4.570004384375e-04 6.916652353211e-03 -5.001416251696e+07 1.339580099777e+07 -1.417123361380e+07 -2.669185784901e+07 2.517171800714e-05 -1.743716725801e-08 5.922166917065e-04 0.000000000000e+00 3.029241799326e+07 3.912861091869e+07  5.800406146751e-04
1.700000000000e+01 1.377524042292e+06 1.000000000000e+00 5.518981195544e+01 4.535609035881e-04 7.130190405454e-03 -5.026922463147e+07 1.339580048420e+07 -1.404254151459e+07 -2.690071641921e+07 2.345558636155e-05 -1.747531802881e-08 6.047542879989e-04 0.000000000000e+00 3.040416085509e+07 3.937306967503e+07  5.933742898636e-04
1.800000000000e+01 1.418991762346e+06 1.000000000000e+00 5.564235493768e+01 4.501819458017e-04 7.332125706177e-03 -5.050738536986e+07 1.339579998062e+07 -1.391740123472e+07 -2.709231985085e+07 2.172631496762e-05 -1.751272676242e-08 6.165190544262e-04 0.000000000000e+00 3.050570215181e+07 3.960653642731e+07  6.059480926554e-04
1.900000000000e+01 1.459538864391e+06 1.000000000000e+00 5.605943227539e+01 4.468764305345e-04 7.523150073364e-03 -5.072986355303e+07 1.339579624963e+07 -1.379544491102e+07 -2.726776087471e+07 1.997922047905e-05 -1.778988614944e-08 6.275652416216e-04 0.000000000000e+00 3.059768977959e+07 3.982969358975e+07  6.178179653948e-04
2.000000000000e+01 1.499248947439e+06 1.000000000000e+00 5.644315823292e+01 4.434039451265e-04 7.703883729777e-03 -5.093550687217e+07 1.339578057758e+07 -1.367835690652e+07 -2.742793905490e+07 1.829051531801e-05 -1.895409556008e-08 6.378636999100e-04 0.000000000000e+00 3.068060094453e+07 4.004018981722e+07  6.289179500676e-04
2.100000000000e+01 1.538044856172e+06 1.000000000000e+00 5.681807715739e+01 4.405821837023e-04 7.876599731150e-03 -5.113397212735e+07 1.339577473870e+07 -1.356732809621e+07 -2.758481202669e+07 1.674565907806e-05 -1.938784142790e-08 6.478143375310e-04 0.000000000000e+00 3.076203741675e+07 4.024292624828e+07  6.396059381324e-04
2.200000000000e+01 1.576073708529e+06 1.000000000000e+00 5.717450172764e+01 4.379972135148e-04 8.041702092595e-03 -5.132294184120e+07 1.339577003825e+07 -1.345983433050e+07 -2.773344136590e+07 1.524730230567e-05 -1.973701758048e-08 6.573274814278e-04 0.000000000000e+00 3.083873917920e+07 4.043819500390e+07  6.498380016691e-04
2.300000000000e+01 1.613406437984e+06 1.000000000000e+00 5.750972237819e+01 4.352696075946e-04 8.199477633357e-03 -5.149979564124e+07 1.339575827381e+07 -1.335686895663e+07 -2.787237677425e+07 1.383890489991e-05 -2.061094752918e-08 6.663123676248e-04 0.000000000000e+00 3.090968045737e+07 4.062336633004e+07  6.595018228359e-04
2.400000000000e+01 1.650091232070e+06 1.000000000000e+00 5.782343461244e+01 4.324844001644e-04 8.350190370253e-03 -5.166578095389e+07 1.339575024692e+07 -1.325695418672e+07 -2.800144000476e+07 1.246751327772e-05 -2.120723047548e-08 6.748172647832e-04 0.000000000000e+00 3.097472504846e+07 4.080021823650e+07  6.686706871677e-04
2.500000000000e+01 1.686180685897e+06 1.000000000000e+00 5.811604494253e+01 4.296766696792e-04 8.494100399130e-03 -5.182165360455e+07 1.339574331277e+07 -1.315953535833e+07 -2.812083297914e+07 1.111255387285e-05 -2.172233906694e-08 6.828702746002e-04 0.000000000000e+00 3.103400731401e+07 4.096952736797e+07  6.773823657928e-04
2.600000000000e+01 1.721709347394e+06 1.000000000000e+00 5.838817848328e+01 4.268904804963e-04 8.631454005631e-03 -5.196822441982e+07 1.339573418537e+07 -1.306416937123e+07 -2.823088456391e+07 9.756125311660e-06 -2.240037389910e-08 6.905000701268e-04 0.000000000000e+00 3.108775945165e+07 4.113204479834e+07  6.856740662441e-04
2.700000000000e+01 1.756706026883e+06 1.000000000000e+00 5.864051959178e+01 4.241369184248e-04 8.762486233516e-03 -5.210592896990e+07 1.339572668998e+07 -1.297063116684e+07 -2.833189735513e+07 8.393288553506e-06 -2.295717437157e-08 6.977262499638e-04 0.000000000000e+00 3.113615249729e+07 4.128811919656e+07  6.935676974997e-04
2.800000000000e+01 1.791210254227e+06 1.000000000000e+00 5.887375096565e+01 4.214473532030e-04 8.887418008709e-03 -5.223536395386e+07 1.339571810404e+07 -1.287856566589e+07 -2.842418274939e+07 7.013446650514e-06 -2.359498759966e-08 7.045735689287e-04 0.000000000000e+00 3.117937078971e+07 4.143831387421e+07  7.010931571481e-04
2.900000000000e+01 1.825247224266e+06 1.000000000000e+00 5.908853129358e+01 4.188359495725e-04 9.006457157139e-03 -5.235699371114e+07 1.339570816508e+07 -1.278784537474e+07 -2.850807232605e+07 5.611668513104e-06 -2.433330977374e-08 7.110590783044e-04 0.000000000000e+00 3.121763713731e+07 4.158295365992e+07  7.082699186033e-04
3.000000000000e+01 1.858826997691e+06 1.000000000000e+00 5.928548729769e+01 4.162926743702e-04 9.119805204583e-03 -5.247097212070e+07 1.339570070681e+07 -1.269838632579e+07 -2.858380640509e+07 4.191164808387e-06 -2.488735287930e-08 7.171948230584e-04 0.000000000000e+00 3.125105495053e+07 4.172212016660e+07  7.151084534804e-04
3.100000000000e+01 1.891867107987e+06 1.000000000000e+00 5.948315500541e+01 4.143970534660e-04 9.229011115473e-03 -5.258403321074e+07 1.339569132752e+07 -1.261198048158e+07 -2.866051974529e+07 2.841105528369e-06 -2.558410045309e-08 7.232535356223e-04 0.000000000000e+00 3.128551114587e+07 4.185882454911e+07  7.218371776349e-04
3.200000000000e+01 1.924442697650e+06 1.000000000000e+00 5.967309829942e+01 4.127729171064e-04 9.334183102548e-03 -5.269351055406e+07 1.339568093972e+07 -1.252701464037e+07 -2.873390035254e+07 1.500369617496e-06 -2.635576527237e-08 7.291349751365e-04 0.000000000000e+00 3.131814184899e+07 4.199249377277e+07  7.283859507132e-04
3.300000000000e+01 1.956581469878e+06 1.000000000000e+00 5.985249399110e+01 4.113149338903e-04 9.435378163012e-03 -5.279873696974e+07 1.339567150107e+07 -1.244275204293e+07 -2.880252793453e+07 1.409843660998e-07 -2.705692179319e-08 7.348137532298e-04 0.000000000000e+00 3.134800564907e+07 4.212321168006e+07  7.347432726859e-04
3.400000000000e+01 1.988310332098e+06 1.000000000000e+00 6.002050707080e+01 4.099778127527e-04 9.532624475234e-03 -5.289948748857e+07 1.339566225498e+07 -1.235910600828e+07 -2.886601469665e+07 -1.243098025939e-06 -2.774377462971e-08 7.402786856812e-04 0.000000000000e+00 3.137486939783e+07 4.225086379561e+07  7.409010183881e-04
3.500000000000e+01 2.019662816807e+06 1.000000000000e+00 6.017694315111e+01 4.088678116856e-04 9.625984988580e-03 -5.299680828942e+07 1.339565114062e+07 -1.227505018408e+07 -2.892429800093e+07 -2.693062184208e-06 -2.856941261520e-08 7.455655675961e-04 0.000000000000e+00 3.139871882481e+07 4.237691355286e+07  7.469157416024e-04
3.600000000000e+01 2.050674490948e+06 1.000000000000e+00 6.032184477356e+01 4.081121081257e-04 9.715508930085e-03 -5.309193515969e+07 1.339564209133e+07 -1.218953300837e+07 -2.897744782513e+07 -4.252209610131e-06 -2.924164591255e-08 7.507160561641e-04 0.000000000000e+00 3.141963866440e+07 4.250299076116e+07  7.528511691316e-04
3.700000000000e+01 2.081407831671e+06 1.000000000000e+00 6.045535759715e+01 4.081891245283e-04 9.801263662376e-03 -5.318927233945e+07 1.339565347105e+07 -1.209885572421e+07 -2.902572675449e+07 -6.074373196222e-06 -2.839629491519e-08 7.558772869521e-04 0.000000000000e+00 3.143795160605e+07 4.263495882035e+07  7.589327072214e-04
3.800000000000e+01 2.113350428244e+06 1.000000000000e+00 6.057786748005e+01 4.240308524621e-04 9.883308979821e-03 -5.342291806655e+07 1.339629518989e+07 -1.188779037910e+07 -2.907493168383e+07 -1.292503139853e-05 1.927424738032e-08 7.655444685747e-04 0.000000000000e+00 3.146188004316e+07 4.295435628678e+07  7.720881278777e-04
3.900000000000e+01 2.143157947788e+06 1.000000000000e+00 6.068911562213e+01 4.192062999520e-04 9.961831654261e-03 -5.346556867452e+07 1.339553166395e+07 -1.183653060281e+07 -2.911083681769e+07 -1.317557757965e-05 -3.744482266504e-08 7.687820223803e-04 0.000000000000e+00 3.147097869834e+07 4.301844395814e+07  7.754537672639e-04
4.000000000000e+01 2.172544101843e+06 1.000000000000e+00 6.078943432377e+01 4.134838834613e-04 1.003677474613e-02 -5.349558160724e+07 1.339553275480e+07 -1.179419168563e+07 -2.914180139025e+07 -1.314023095729e-05 -3.736378824713e-08 7.715047234277e-04 0.000000000000e+00 3.147719156104e+07 4.306793401955e+07  7.781580548831e-04
4.200000000000e+01 2.229827605392e+06 1.000000000000e+00 6.098757655460e+01 4.034608621206e-04 1.017712011260e-02 -5.355375449827e+07 1.339553323743e+07 -1.171439534341e+07 -2.920391984760e+07 -1.299368135089e-05 -3.732793540281e-08 7.767758445543e-04 0.000000000000e+00 3.149068989643e+07 4.316232010491e+07  7.833535156131e-04
4.400000000000e+01 2.285593809494e+06 1.000000000000e+00 6.116288333508e+01 3.939576130907e-04 1.030795959727e-02 -5.360318965073e+07 1.339553379634e+07 -1.163611956819e+07 -2.925589476685e+07 -1.289934715576e-05 -3.728641657084e-08 7.816137274918e-04 0.000000000000e+00 3.149840132859e+07 4.324999521190e+07  7.881425779288e-04
5.000000000000e+01 2.437116678573e+06 1.000000000000e+00 6.137887994117e+01 3.693549471029e-04 1.058165972773e-02 -5.365219085079e+07 1.339553506844e+07 -1.143166899885e+07 -2.928267407536e+07 -1.372473169939e-05 -3.719191735655e-08 7.902022658118e-04 0.000000000000e+00 3.145551130833e+07 4.342664132867e+07  7.971532521357e-04
6.500000000000e+01 2.768502507756e+06 1.000000000000e+00 6.141736623214e+01 3.263371557363e-04 1.104599921423e-02 -5.356289108004e+07 1.339553669411e+07 -1.092421987855e+07 -2.911292697050e+07 -1.671277553770e-05 -3.707115333753e-08 8.027454835285e-04 0.000000000000e+00 3.120001264303e+07 4.372258290863e+07  8.112310012533e-04
8.000000000000e+01 3.023556374630e+06 1.000000000000e+00 6.104694031263e+01 2.980456010513e-04 1.126636454637e-02 -5.335378862835e+07 1.339553988220e+07 -1.054177996404e+07 -2.880259229830e+07 -2.047282944239e-05 -3.683432372637e-08 8.054236782425e-04 0.000000000000e+00 3.089938696356e+07 4.385048190516e+07  8.158527709598e-04
1.000000000000e+02 3.324236305531e+06 1.000000000000e+00 6.054170887125e+01 2.730666243894e-04 1.145084974058e-02 -5.308040017110e+07 1.339554279070e+07 -1.013348970272e+07 -2.841820783205e+07 -2.459553834788e-05 -3.661826372677e-08 8.063116077739e-04 0.000000000000e+00 3.054403256862e+07 4.395244684179e+07  8.188864520980e-04
1.860000000000e+02 3.922717201764e+06 1.000000000000e+00 5.903012489566e+01 2.325805008227e-04 1.167017691535e-02 -5.230023804060e+07 1.339554610586e+07 -9.216569295010e+06 -2.737427557352e+07 -3.439271453219e-05 -3.637199513675e-08 8.015940247432e-04 0.000000000000e+00 2.963036096971e+07 4.406729142818e+07  8.193319460081e-04
2.720000000000e+02 4.213038211969e+06 1.000000000000e+00 5.757488621183e+01 2.216329441670e-04 1.150208739192e-02 -5.170544798552e+07 1.339554774099e+07 -8.872238066941e+06 -2.658041330889e+07 -4.178682517269e-05 -3.625052835486e-08 7.848971576709e-04 0.000000000000e+00 2.905269978712e+07 4.390999262991e+07  8.066027839813e-04
3.580000000000e+02 4.354403691727e+06 1.000000000000e+00 5.648574033373e+01 2.183137333693e-04 1.132619436459e-02 -5.127044309373e+07 1.339554782813e+07 -8.668878183944e+06 -2.600609276092e+07 -4.696140668782e-05 -3.624405470616e-08 7.711186186863e-04 0.000000000000e+00 2.864847134620e+07 4.376302063092e+07  7.956394389422e-04
4.440000000000e+02 4.426532453840e+06 1.000000000000e+00 5.562775712185e+01 2.175979274813e-04 1.116160510246e-02 -5.093882335441e+07 1.339554910102e+07 -8.546279570363e+06 -2.556845042050e+07 -5.089938901402e-05 -3.614949702203e-08 7.594169945468e-04 0.000000000000e+00 2.835118444842e+07 4.363016333940e+07  7.861035455703e-04
5.300000000000e+02 4.465496889446e+06 1.000000000000e+00 5.495287082362e+01 2.179967699418e-04 1.101895836607e-02 -5.068362499777e+07 1.339554973916e+07 -8.468970094452e+06 -2.523173055473e+07 -5.392733078196e-05 -3.610209286003e-08 7.497817514946e-04 0.000000000000e+00 2.812810854898e+07 4.351729928706e+07  7.781481634732e-04
6.160000000000e+02 4.488012314786e+06 1.000000000000e+00 5.442978833274e+01 2.188631216112e-04 1.090073446268e-02 -5.048916501058e+07 1.339554904593e+07 -8.420263722878e+06 -2.497516953506e+07 -5.623394055978e-05 -3.615358977599e-08 7.420614359940e-04 0.000000000000e+00 2.796153275617e+07 4.342502580644e+07  7.717165758651e-04
7.020000000000e+02 4.501822576458e+06 1.000000000000e+00 5.404171608217e+01 2.197250085313e-04 1.081004700145e-02 -5.034627662516e+07 1.339555002994e+07 -8.388702326783e+06 -2.478663597846e+07 -5.792933263202e-05 -3.608049202844e-08 7.362310414612e-04 0.000000000000e+00 2.784053831014e+07 4.335475788575e+07  7.668385298030e-04
7.880000000000e+02 4.511441113274e+06 1.000000000000e+00 5.372922177348e+01 2.209424080333e-04 1.072832595507e-02 -5.023595646515e+07 1.339554922141e+07 -8.377529492136e+06 -2.464056560280e+07 -5.925719778505e-05 -3.614055367765e-08 7.312205613661e-04 0.000000000000e+00 2.775135052003e+07 4.329193180749e+07  7.625778715657e-04
8.740000000000e+02 4.519827167133e+06 1.000000000000e+00 5.323953454171e+01 2.220266474059e-04 1.061279881728e-02 -5.005540224407e+07 1.339554981141e+07 -8.337222148155e+06 -2.440244382288e+07 -6.139542139914e-05 -3.609672576543e-08 7.238731680313e-04 0.000000000000e+00 2.759835607170e+07 4.320426311275e+07  7.564418439406e-04
9.370000000000e+02 4.525201002277e+06 1.000000000000e+00 5.288417531801e+01 2.237720680709e-04 1.051784319631e-02 -4.992778431367e+07 1.339555005625e+07 -8.321770679009e+06 -2.423489968945e+07 -6.287839465438e-05 -3.607853769173e-08 7.182240119293e-04 0.000000000000e+00 2.749481822737e+07 4.313384363606e+07  7.516383442876e-04
1.000000000000e+03 4.529391016053e+06 1.000000000000e+00 5.259531212533e+01 2.256137108566e-04 1.043834180719e-02 -4.982257459751e+07 1.339555004741e+07 -8.308464745526e+06 -2.409808400544e+07 -6.405233060301e-05 -3.607919375198e-08 7.136365069100e-04 0.000000000000e+00 2.740970778283e+07 4.307625433945e+07  7.477231108014e-04
1.100000000000e+03 4.533536316160e+06 1.000000000000e+00 5.229971020816e+01 2.277723083361e-04 1.035516891995e-02 -4.971435489921e+07 1.339555044698e+07 -8.295279836495e+06 -2.395806660469e+07 -6.523338812256e-05 -3.604951183018e-08 7.089255857888e-04 0.000000000000e+00 2.732256711346e+07 4.301682046463e+07  7.436911340728e-04
1.200000000000e+03 4.536797682875e+06 1.000000000000e+00 5.204965271686e+01 2.293940540482e-04 1.028605032419e-02 -4.962322512262e+07 1.339554964415e+07 -8.283831490244e+06 -2.383963791253e+07 -6.624734784362e-05 -3.610915032224e-08 7.049520300838e-04 0.000000000000e+00 2.724889817513e+07 4.296723432090e+07  7.403021559318e-04
1.300000000000e+03 4.539703052078e+06 1.000000000000e+00 5.181069984558e+01 2.308837625180e-04 1.022026214945e-02 -4.953633509006e+07 1.339554991133e+07 -8.272963051813e+06 -2.372654171507e+07 -6.722071968305e-05 -3.608930304556e-08 7.011549990341e-04 0.000000000000e+00 2.717861328565e+07 4.292009403583e+07  7.370679109668e-04
1.400000000000e+03 4.542442562524e+06 1.000000000000e+00 5.156544378992e+01 2.324489650950e-04 1.015228517501e-02 -4.944721163788e+07 1.339554951528e+07 -8.262166141408e+06 -2.361059082599e+07 -6.821716733913e-05 -3.611872373182e-08 6.972492798261e-04 0.000000000000e+00 2.710665620176e+07 4.287165478915e+07  7.337400867136e-04
1.500000000000e+03 4.545082446453e+06 1.000000000000e+00 5.130381469185e+01 2.342090461837e-04 1.007889803882e-02 -4.935212601576e+07 1.339555113733e+07 -8.251193907602e+06 -2.348706811849e+07 -6.927340193899e-05 -3.599822878468e-08 6.930688336604e-04 0.000000000000e+00 2.703012934729e+07 4.281976438979e+07  7.301742615162e-04
1.600000000000e+03 4.547643486991e+06 1.000000000000e+00 5.101967084496e+01 2.362382456289e-04 9.998129595895e-03 -4.924882105182e+07 1.339555033522e+07 -8.239920084798e+06 -2.335310896626e+07 -7.041198607588e-05 -3.605781371205e-08 6.885119499958e-04 0.000000000000e+00 2.694728336763e+07 4.276313221579e+07  7.262823492326e-04
1.700000000000e+03 4.550130771773e+06 1.000000000000e+00 5.070922120887e+01 2.385809477639e-04 9.908757097963e-03 -4.913589879032e+07 1.339554966775e+07 -8.228271808680e+06 -2.320694526042e+07 -7.164666829387e-05 -3.610739733924e-08 6.835156626061e-04 0.000000000000e+00 2.685703861980e+07 4.270099378355e+07  7.220100622354e-04
1.800000000000e+03 4.552544175197e+06 1.000000000000e+00 5.037017770211e+01 2.412647558277e-04 9.810043653365e-03 -4.901252030830e+07 1.339554987920e+07 -8.216206751450e+06 -2.304751179807e+07 -7.298585327736e-05 -3.609168995480e-08 6.780419789876e-04 0.000000000000e+00 2.675874628594e+07 4.263292750649e+07  7.173251259716e-04
1.900000000000e+03 4.554883463306e+06 1.000000000000e+00 5.000125366953e+01 2.443046659962e-04 9.701572376226e-03 -4.887821504772e+07 1.339554958137e+07 -8.203710330750e+06 -2.287421270835e+07 -7.443419550276e-05 -3.611381394169e-08 6.720693084239e-04 0.000000000000e+00 2.665204602894e+07 4.255873355241e+07  7.122096229290e-04
2.000000000000e+03 4.557147803229e+06 1.000000000000e+00 4.960184698452e+01 2.477082553729e-04 9.583152644253e-03 -4.873276155510e+07 1.339554993987e+07 -8.190765726707e+06 -2.268676576530e+07 -7.599395223292e-05 -3.608718273693e-08 6.655877929750e-04 0.000000000000e+00 2.653676434903e+07 4.247838208253e+07  7.066560986692e-04