 TITLE = "Time curves in points"
 VARIABLES = "TIME"  "TEMPERATURE1"  p_(1st_Invariant)  q_(2nd_Invariant)   Effective_Strain
 ZONE T="POINT=POINT6"
0.000000000000e+00 3.000000000000e+01 -0.000000000000e+00 0.000000000000e+00  0.000000000000e+00
1.000000000000e-02 3.000000000000e+01 -4.264134247685e+03 5.432041380505e+03  2.534952644378e-04
7.000000000000e-02 3.000000000000e+01 -3.366454491965e+02 1.285444171527e+04  5.998739467546e-04
4.300000000000e-01 3.000000000000e+01 2.322737727566e+04 5.806392576764e+04  2.709649869157e-03
1.430000000000e+00 3.000000000000e+01 8.867698871635e+04 1.838138539110e+05  8.577979849184e-03
2.430000000000e+00 3.000000000000e+01 1.541202251434e+05 3.095644747514e+05  1.444634215507e-02
3.430000000000e+00 3.000000000000e+01 2.195591439077e+05 4.353104859150e+05  2.031448934270e-02
4.430000000000e+00 3.000000000000e+01 2.849948557997e+05 5.610528794736e+05  2.618246770877e-02
5.430000000000e+00 3.000000000000e+01 3.504280981758e+05 6.867925088062e+05  3.205031707762e-02
6.430000000000e+00 3.000000000000e+01 4.158594109248e+05 8.125299738254e+05  3.791806544519e-02
7.430000000000e+00 3.000000000000e+01 4.812892016453e+05 9.382656915886e+05  4.378573227414e-02
8.430000000000e+00 3.000000000000e+01 5.467177645233e+05 1.063999960897e+06  4.965333150854e-02
9.430000000000e+00 3.000000000000e+01 6.121155474571e+05 1.189743245422e+06  5.552135145303e-02
