 TITLE = "Time curves in points"
 VARIABLES = "TIME"  "DISPLACEMENT_X1"  "DISPLACEMENT_Y1"  "STRESS_XX"  "STRESS_XY"  "STRESS_YY"  "STRESS_ZZ"  "STRAIN_XX"  "STRAIN_XY"  "STRAIN_YY"  "STRAIN_PLS"  p_(1st_Invariant)  q_(2nd_Invariant)   Effective_Strain
 ZONE T="POINT=POINT6"
0.000000000000e+00 0.000000000000e+00 0.000000000000e+00 0.000000000000e+00 0.000000000000e+00 0.000000000000e+00 0.000000000000e+00 0.000000000000e+00 0.000000000000e+00 0.000000000000e+00 0.000000000000e+00 -0.000000000000e+00 0.000000000000e+00  0.000000000000e+00
1.000000000000e-02 -1.118758749803e-10 -7.023569292279e-06 7.660216906510e+03 -1.915465744963e-02 1.477213624245e+03 3.654972212302e+03 1.869114190630e-04 -1.787768028632e-09 -1.016287341093e-04 0.000000000000e+00 -4.264134247685e+03 5.432041380505e+03  2.534952644378e-04
7.000000000000e-02 7.451701876128e-10 -2.417688589858e-05 7.782090070238e+03 5.055904665407e-02 -7.060706964817e+03 2.885532421684e+02 3.496983853099e-04 4.718844354380e-09 -3.429654763260e-04 0.000000000000e+00 -3.366454491965e+02 1.285444171527e+04  5.998739467546e-04
4.300000000000e-01 2.721837796941e-10 -1.270938153070e-04 8.513354729973e+03 1.783785006135e-02 -5.828630603496e+04 -1.990918052199e+04 1.326384978425e-03 1.664866005726e-09 -1.790932523938e-03 0.000000000000e+00 2.322737727566e+04 5.806392576764e+04  2.709649869157e-03
1.430000000000e+00 6.946742264606e-10 -4.129525762156e-04 1.054532185728e+04 5.937521641656e-02 -2.005674405352e+05 -7.600884747116e+04 4.039194568661e-03 5.541686865549e-09 -5.812734342988e-03 0.000000000000e+00 8.867698871635e+04 1.838138539110e+05  8.577979849184e-03
2.430000000000e+00 5.400380407143e-10 -6.987888060614e-04 1.257830879188e+04 3.684450603047e-02 -3.428359340992e+05 -1.321030501229e+05 6.751796749357e-03 3.438820562845e-09 -9.834201252225e-03 0.000000000000e+00 1.541202251434e+05 3.095644747514e+05  1.444634215507e-02
3.430000000000e+00 3.822556658295e-10 -9.846117950333e-04 1.461246325931e+04 3.320594922106e-02 -4.850963430616e+05 -1.881935519209e+05 9.464280708411e-03 3.099221927296e-09 -1.385546358657e-02 0.000000000000e+00 2.195591439077e+05 4.353104859150e+05  2.031448934270e-02
4.430000000000e+00 2.698327601624e-10 -1.270426065513e-03 1.664772117583e+04 2.969449659462e-02 -6.273509836037e+05 -2.442813049711e+05 1.217668788686e-02 2.771486348819e-09 -1.787658500285e-02 0.000000000000e+00 2.849948557997e+05 5.610528794736e+05  2.618246770877e-02
5.430000000000e+00 4.365945664271e-10 -1.556234171107e-03 1.868392931747e+04 2.626028845361e-02 -7.696012825514e+05 -3.003669412936e+05 1.488904062852e-02 2.450960255670e-09 -2.189760259203e-02 0.000000000000e+00 3.504280981758e+05 6.867925088062e+05  3.205031707762e-02
6.430000000000e+00 9.983033840285e-10 -1.842037658843e-03 2.072090789365e+04 6.713117905563e-02 -9.118482170182e+05 -3.564509236498e+05 1.760135213869e-02 6.265576711841e-09 -2.591854035719e-02 0.000000000000e+00 4.158594109248e+05 8.125299738254e+05  3.791806544519e-02
7.430000000000e+00 -3.991142936220e-10 -2.127837555663e-03 2.275848356270e+04 -3.084784626945e-02 -1.054092487088e+06 -4.125336014102e+05 2.031363063207e-02 -2.879132318488e-09 -2.993941466498e-02 0.000000000000e+00 4.812892016453e+05 9.382656915886e+05  4.378573227414e-02
8.430000000000e+00 7.194125422306e-11 -2.413634548047e-03 2.479652472446e+04 3.178192591101e-03 -1.196334591560e+06 -4.686152267343e+05 2.302588173474e-02 2.966313085083e-10 -3.396023702521e-02 0.000000000000e+00 5.467177645233e+05 1.063999960897e+06  4.965333150854e-02
9.430000000000e+00 7.829626036273e-10 -2.699677936079e-03 2.687318628063e+04 5.832866090691e-02 -1.338549359403e+06 -5.246704692489e+05 2.573870392471e-02 5.444008351314e-09 -3.798101487386e-02 0.000000000000e+00 6.121155474571e+05 1.189743245422e+06  5.552135145303e-02
