 TITLE = "Time curves in points"
 VARIABLES = "TIME"  "PRESSURE1"  "PRESSURE2"  "PRESSURE_W"  "SATURATION1" SATURATION2  "VELOCITY_X1"  "VELOCITY_Y1"  "VELOCITY_X2"  "VELOCITY_Y2"  p_(1st_Invariant)  q_(2nd_Invariant)   Effective_Strain
 ZONE T="POINT=POINT6"
0.000000000000e+00 1.000000000000e+05 1.000000000000e+05 0.000000000000e+00 9.251121356155e-01 7.488786438454e-02 0.000000000000e+00 0.000000000000e+00 0.000000000000e+00 0.000000000000e+00 -0.000000000000e+00 0.000000000000e+00  0.000000000000e+00
1.000000000000e-02 9.999999997033e+04 1.000000000000e+05 2.967136970256e-05 9.251121356793e-01 7.488786432075e-02 -2.055540954486e-19 -9.238128874768e-07 -8.955371709307e-21 -2.354495670039e-11 -4.264134247685e+03 5.432041380505e+03  2.534952644378e-04
7.000000000000e-02 1.000000000059e+05 1.000000000000e+05 -5.933470674790e-06 9.251121356027e-01 7.488786439730e-02 -1.370360632137e-19 -9.238121441194e-07 -1.062735019342e-20 -2.354495672401e-11 -3.366454491965e+02 1.285444171527e+04  5.998739467546e-04
4.300000000000e-01 9.999999505604e+04 1.000000000000e+05 4.943956038915e-03 9.251121462450e-01 7.488785375504e-02 -1.370361261520e-19 -9.237390074505e-07 -9.083495426258e-21 -2.354495367429e-11 2.322737727566e+04 5.806392576764e+04  2.709649869157e-03
1.430000000000e+00 9.999922361495e+04 1.000000000000e+05 7.763850524934e-01 9.251138048427e-01 7.488619515735e-02 -1.370448525827e-19 -9.182193373134e-07 -9.851340523398e-21 -2.354447968314e-11 8.867698871635e+04 1.838138539110e+05  8.577979849184e-03
2.430000000000e+00 9.999699299433e+04 1.000000000000e+05 3.007005674372e+00 9.251186006751e-01 7.488139932493e-02 -2.056076078997e-19 -9.055005095358e-07 -8.152571295619e-21 -2.354310911836e-11 1.541202251434e+05 3.095644747514e+05  1.444634215507e-02
3.430000000000e+00 9.999299217059e+04 1.000000000000e+05 7.007829414782e+00 9.251272024427e-01 7.487279755732e-02 -2.742381637240e-19 -8.867782571877e-07 -1.142639300977e-20 -2.354065090308e-11 2.195591439077e+05 4.353104859150e+05  2.031448934270e-02
4.430000000000e+00 9.998725735704e+04 1.000000000000e+05 1.274264295993e+01 9.251395322869e-01 7.486046771312e-02 1.371793046678e-19 -8.642973413460e-07 -1.673856544821e-20 -2.353712726355e-11 2.849948557997e+05 5.610528794736e+05  2.618246770877e-02
5.430000000000e+00 9.998000585406e+04 1.000000000000e+05 1.999414593780e+01 9.251551230120e-01 7.484487698795e-02 -1.372820856576e-19 -8.400616650899e-07 -3.025421156901e-20 -2.353267173238e-11 3.504280981758e+05 6.867925088062e+05  3.205031707762e-02
6.430000000000e+00 9.997150879314e+04 1.000000000000e+05 2.849120685991e+01 9.251733916857e-01 7.482660831427e-02 6.867240108834e-20 -8.154693571961e-07 -3.478943364754e-20 -2.352745089759e-11 4.158594109248e+05 8.125299738254e+05  3.791806544519e-02
7.430000000000e+00 9.996202562996e+04 1.000000000000e+05 3.797437004474e+01 9.251937804784e-01 7.480621952156e-02 1.374746328255e-19 -7.913716036297e-07 -4.350563148730e-20 -2.352162417978e-11 4.812892016453e+05 9.382656915886e+05  4.378573227414e-02
8.430000000000e+00 9.995177959233e+04 1.000000000000e+05 4.822040767448e+01 9.252158094505e-01 7.478419054946e-02 1.375829778980e-19 -7.682320345955e-07 -4.104740224894e-20 -2.351532873620e-11 5.467177645233e+05 1.063999960897e+06  4.965333150854e-02
9.430000000000e+00 9.994095346160e+04 1.000000000000e+05 5.904653839787e+01 9.252390856223e-01 7.476091437771e-02 6.892953483852e-20 -7.462678495292e-07 -3.440983652673e-20 -2.350867685407e-11 6.121155474571e+05 1.189743245422e+06  5.552135145303e-02
